<?xml version="1.0" encoding="UTF-8"?>

<!-- generated on Wed Jun  3 09:39:49 2020 by SUMO gui Version 0.32.0
<?xml version="1.0" encoding="UTF-8"?>

<configuration xmlns:xsi="http://www.w3.org/2001/XMLSchema-instance" xsi:noNamespaceSchemaLocation="http://sumo.dlr.de/xsd/sumoConfiguration.xsd">

    <input>
        <net-file value="ciudad2x2.net.xml"/>
        <additional-files value="ciudad2x2.rou.xml,ciudad2x2.add.xml,ciudad2x2.det.xml"/>
    </input>

    <output>
        <queue-output value="ciudad2x2queue.xml"/>
        <summary-output value="ciudad2x2summary.xml"/>
        <tripinfo-output value="ciudad2x2tripinfo.xml"/>
    </output>

    <time>
        <begin value="0"/>
    </time>

    <processing>
        <time-to-teleport value="-1"/>
    </processing>

    <report>
        <verbose value="true"/>
        <no-step-log value="true"/>
    </report>

    <traci_server>
        <remote-port value="50665"/>
    </traci_server>

</configuration>
-->

<tripinfos xmlns:xsi="http://www.w3.org/2001/XMLSchema-instance" xsi:noNamespaceSchemaLocation="http://sumo.dlr.de/xsd/tripinfo_file.xsd">
    <tripinfo id="flow1.0" depart="0.00" departLane="1to2_0" departPos="4.60" departSpeed="0.00" departDelay="0.00" arrival="58.00" arrivalLane="outr_0" arrivalPos="195.25" arrivalSpeed="14.00" duration="58.00" routeLength="595.40" waitSteps="0" timeLoss="15.46" rerouteNo="0" devices="tripinfo_flow1.0" vType="Car" speedFactor="1.00" vaporized=""/>
    <tripinfo id="flow2.0" depart="0.00" departLane="8to7_0" departPos="4.60" departSpeed="0.00" departDelay="0.00" arrival="58.00" arrivalLane="outl_0" arrivalPos="195.25" arrivalSpeed="14.00" duration="58.00" routeLength="595.40" waitSteps="0" timeLoss="15.46" rerouteNo="0" devices="tripinfo_flow2.0" vType="Car" speedFactor="1.00" vaporized=""/>
    <tripinfo id="flow4.0" depart="0.00" departLane="12to7_0" departPos="4.60" departSpeed="0.00" departDelay="0.00" arrival="73.00" arrivalLane="outn_0" arrivalPos="198.55" arrivalSpeed="14.00" duration="73.00" routeLength="595.40" waitSteps="15" timeLoss="29.72" rerouteNo="0" devices="tripinfo_flow4.0" vType="Car" speedFactor="1.00" vaporized=""/>
    <tripinfo id="flow3.0" depart="0.00" departLane="9to2_0" departPos="4.60" departSpeed="0.00" departDelay="0.00" arrival="73.00" arrivalLane="outs_0" arrivalPos="198.55" arrivalSpeed="14.00" duration="73.00" routeLength="595.40" waitSteps="15" timeLoss="29.72" rerouteNo="0" devices="tripinfo_flow3.0" vType="Car" speedFactor="1.00" vaporized=""/>
    <tripinfo id="flow4.1" depart="4.00" departLane="12to7_0" departPos="4.60" departSpeed="0.00" departDelay="1.78" arrival="74.00" arrivalLane="outn_0" arrivalPos="198.55" arrivalSpeed="14.00" duration="70.00" routeLength="595.40" waitSteps="13" timeLoss="27.22" rerouteNo="0" devices="tripinfo_flow4.1" vType="Car" speedFactor="1.00" vaporized=""/>
    <tripinfo id="flow3.1" depart="4.00" departLane="9to2_0" departPos="4.60" departSpeed="0.00" departDelay="1.78" arrival="74.00" arrivalLane="outs_0" arrivalPos="198.55" arrivalSpeed="14.00" duration="70.00" routeLength="595.40" waitSteps="13" timeLoss="27.22" rerouteNo="0" devices="tripinfo_flow3.1" vType="Car" speedFactor="1.00" vaporized=""/>
    <tripinfo id="flow4.2" depart="8.00" departLane="12to7_0" departPos="4.60" departSpeed="0.00" departDelay="3.56" arrival="76.00" arrivalLane="outn_0" arrivalPos="198.55" arrivalSpeed="14.00" duration="68.00" routeLength="595.40" waitSteps="10" timeLoss="24.72" rerouteNo="0" devices="tripinfo_flow4.2" vType="Car" speedFactor="1.00" vaporized=""/>
    <tripinfo id="flow3.2" depart="8.00" departLane="9to2_0" departPos="4.60" departSpeed="0.00" departDelay="3.56" arrival="76.00" arrivalLane="outs_0" arrivalPos="198.55" arrivalSpeed="14.00" duration="68.00" routeLength="595.40" waitSteps="10" timeLoss="24.72" rerouteNo="0" devices="tripinfo_flow3.2" vType="Car" speedFactor="1.00" vaporized=""/>
    <tripinfo id="flow4.3" depart="12.00" departLane="12to7_0" departPos="4.60" departSpeed="0.00" departDelay="5.33" arrival="77.00" arrivalLane="outn_0" arrivalPos="198.55" arrivalSpeed="14.00" duration="65.00" routeLength="595.40" waitSteps="8" timeLoss="22.22" rerouteNo="0" devices="tripinfo_flow4.3" vType="Car" speedFactor="1.00" vaporized=""/>
    <tripinfo id="flow3.3" depart="12.00" departLane="9to2_0" departPos="4.60" departSpeed="0.00" departDelay="5.33" arrival="77.00" arrivalLane="outs_0" arrivalPos="198.55" arrivalSpeed="14.00" duration="65.00" routeLength="595.40" waitSteps="8" timeLoss="22.22" rerouteNo="0" devices="tripinfo_flow3.3" vType="Car" speedFactor="1.00" vaporized=""/>
    <tripinfo id="flow4.4" depart="16.00" departLane="12to7_0" departPos="4.60" departSpeed="0.00" departDelay="7.11" arrival="79.00" arrivalLane="outn_0" arrivalPos="198.55" arrivalSpeed="14.00" duration="63.00" routeLength="595.40" waitSteps="5" timeLoss="19.72" rerouteNo="0" devices="tripinfo_flow4.4" vType="Car" speedFactor="1.00" vaporized=""/>
    <tripinfo id="flow3.4" depart="16.00" departLane="9to2_0" departPos="4.60" departSpeed="0.00" departDelay="7.11" arrival="79.00" arrivalLane="outs_0" arrivalPos="198.55" arrivalSpeed="14.00" duration="63.00" routeLength="595.40" waitSteps="5" timeLoss="19.72" rerouteNo="0" devices="tripinfo_flow3.4" vType="Car" speedFactor="1.00" vaporized=""/>
    <tripinfo id="flow4.5" depart="20.00" departLane="12to7_0" departPos="4.60" departSpeed="0.00" departDelay="8.89" arrival="80.00" arrivalLane="outn_0" arrivalPos="198.55" arrivalSpeed="14.00" duration="60.00" routeLength="595.40" waitSteps="3" timeLoss="17.22" rerouteNo="0" devices="tripinfo_flow4.5" vType="Car" speedFactor="1.00" vaporized=""/>
    <tripinfo id="flow3.5" depart="20.00" departLane="9to2_0" departPos="4.60" departSpeed="0.00" departDelay="8.89" arrival="80.00" arrivalLane="outs_0" arrivalPos="198.55" arrivalSpeed="14.00" duration="60.00" routeLength="595.40" waitSteps="3" timeLoss="17.22" rerouteNo="0" devices="tripinfo_flow3.5" vType="Car" speedFactor="1.00" vaporized=""/>
    <tripinfo id="flow1.1" depart="4.00" departLane="1to2_0" departPos="4.60" departSpeed="0.00" departDelay="1.78" arrival="89.00" arrivalLane="outr_0" arrivalPos="195.25" arrivalSpeed="14.00" duration="85.00" routeLength="595.40" waitSteps="22" timeLoss="42.43" rerouteNo="0" devices="tripinfo_flow1.1" vType="Car" speedFactor="1.00" vaporized=""/>
    <tripinfo id="flow2.1" depart="4.00" departLane="8to7_0" departPos="4.60" departSpeed="0.00" departDelay="1.78" arrival="89.00" arrivalLane="outl_0" arrivalPos="195.25" arrivalSpeed="14.00" duration="85.00" routeLength="595.40" waitSteps="22" timeLoss="42.43" rerouteNo="0" devices="tripinfo_flow2.1" vType="Car" speedFactor="1.00" vaporized=""/>
    <tripinfo id="flow1.2" depart="8.00" departLane="1to2_0" departPos="4.60" departSpeed="0.00" departDelay="3.56" arrival="91.00" arrivalLane="outr_0" arrivalPos="195.25" arrivalSpeed="14.00" duration="83.00" routeLength="595.40" waitSteps="22" timeLoss="39.93" rerouteNo="0" devices="tripinfo_flow1.2" vType="Car" speedFactor="1.00" vaporized=""/>
    <tripinfo id="flow2.2" depart="8.00" departLane="8to7_0" departPos="4.60" departSpeed="0.00" departDelay="3.56" arrival="91.00" arrivalLane="outl_0" arrivalPos="195.25" arrivalSpeed="14.00" duration="83.00" routeLength="595.40" waitSteps="22" timeLoss="39.93" rerouteNo="0" devices="tripinfo_flow2.2" vType="Car" speedFactor="1.00" vaporized=""/>
    <tripinfo id="flow1.3" depart="12.00" departLane="1to2_0" departPos="4.60" departSpeed="0.00" departDelay="5.33" arrival="92.00" arrivalLane="outr_0" arrivalPos="195.25" arrivalSpeed="14.00" duration="80.00" routeLength="595.40" waitSteps="22" timeLoss="37.43" rerouteNo="0" devices="tripinfo_flow1.3" vType="Car" speedFactor="1.00" vaporized=""/>
    <tripinfo id="flow2.3" depart="12.00" departLane="8to7_0" departPos="4.60" departSpeed="0.00" departDelay="5.33" arrival="92.00" arrivalLane="outl_0" arrivalPos="195.25" arrivalSpeed="14.00" duration="80.00" routeLength="595.40" waitSteps="22" timeLoss="37.43" rerouteNo="0" devices="tripinfo_flow2.3" vType="Car" speedFactor="1.00" vaporized=""/>
    <tripinfo id="flow1.4" depart="16.00" departLane="1to2_0" departPos="4.60" departSpeed="0.00" departDelay="7.11" arrival="94.00" arrivalLane="outr_0" arrivalPos="195.25" arrivalSpeed="14.00" duration="78.00" routeLength="595.40" waitSteps="20" timeLoss="34.93" rerouteNo="0" devices="tripinfo_flow1.4" vType="Car" speedFactor="1.00" vaporized=""/>
    <tripinfo id="flow2.4" depart="16.00" departLane="8to7_0" departPos="4.60" departSpeed="0.00" departDelay="7.11" arrival="94.00" arrivalLane="outl_0" arrivalPos="195.25" arrivalSpeed="14.00" duration="78.00" routeLength="595.40" waitSteps="20" timeLoss="34.93" rerouteNo="0" devices="tripinfo_flow2.4" vType="Car" speedFactor="1.00" vaporized=""/>
    <tripinfo id="flow1.5" depart="20.00" departLane="1to2_0" departPos="4.60" departSpeed="0.00" departDelay="8.89" arrival="95.00" arrivalLane="outr_0" arrivalPos="195.25" arrivalSpeed="14.00" duration="75.00" routeLength="595.40" waitSteps="13" timeLoss="32.43" rerouteNo="0" devices="tripinfo_flow1.5" vType="Car" speedFactor="1.00" vaporized=""/>
    <tripinfo id="flow2.5" depart="20.00" departLane="8to7_0" departPos="4.60" departSpeed="0.00" departDelay="8.89" arrival="95.00" arrivalLane="outl_0" arrivalPos="195.25" arrivalSpeed="14.00" duration="75.00" routeLength="595.40" waitSteps="13" timeLoss="32.43" rerouteNo="0" devices="tripinfo_flow2.5" vType="Car" speedFactor="1.00" vaporized=""/>
    <tripinfo id="flow1.6" depart="24.00" departLane="1to2_0" departPos="4.60" departSpeed="0.00" departDelay="10.67" arrival="97.00" arrivalLane="outr_0" arrivalPos="195.25" arrivalSpeed="14.00" duration="73.00" routeLength="595.40" waitSteps="11" timeLoss="29.93" rerouteNo="0" devices="tripinfo_flow1.6" vType="Car" speedFactor="1.00" vaporized=""/>
    <tripinfo id="flow2.6" depart="24.00" departLane="8to7_0" departPos="4.60" departSpeed="0.00" departDelay="10.67" arrival="97.00" arrivalLane="outl_0" arrivalPos="195.25" arrivalSpeed="14.00" duration="73.00" routeLength="595.40" waitSteps="11" timeLoss="29.93" rerouteNo="0" devices="tripinfo_flow2.6" vType="Car" speedFactor="1.00" vaporized=""/>
    <tripinfo id="flow1.7" depart="28.00" departLane="1to2_0" departPos="4.60" departSpeed="0.00" departDelay="12.45" arrival="98.00" arrivalLane="outr_0" arrivalPos="195.25" arrivalSpeed="14.00" duration="70.00" routeLength="595.40" waitSteps="8" timeLoss="27.43" rerouteNo="0" devices="tripinfo_flow1.7" vType="Car" speedFactor="1.00" vaporized=""/>
    <tripinfo id="flow2.7" depart="28.00" departLane="8to7_0" departPos="4.60" departSpeed="0.00" departDelay="12.45" arrival="98.00" arrivalLane="outl_0" arrivalPos="195.25" arrivalSpeed="14.00" duration="70.00" routeLength="595.40" waitSteps="8" timeLoss="27.43" rerouteNo="0" devices="tripinfo_flow2.7" vType="Car" speedFactor="1.00" vaporized=""/>
    <tripinfo id="flow1.8" depart="32.00" departLane="1to2_0" departPos="4.60" departSpeed="0.00" departDelay="14.22" arrival="100.00" arrivalLane="outr_0" arrivalPos="195.25" arrivalSpeed="14.00" duration="68.00" routeLength="595.40" waitSteps="6" timeLoss="24.93" rerouteNo="0" devices="tripinfo_flow1.8" vType="Car" speedFactor="1.00" vaporized=""/>
    <tripinfo id="flow2.8" depart="32.00" departLane="8to7_0" departPos="4.60" departSpeed="0.00" departDelay="14.22" arrival="100.00" arrivalLane="outl_0" arrivalPos="195.25" arrivalSpeed="14.00" duration="68.00" routeLength="595.40" waitSteps="6" timeLoss="24.93" rerouteNo="0" devices="tripinfo_flow2.8" vType="Car" speedFactor="1.00" vaporized=""/>
    <tripinfo id="flow1.9" depart="36.00" departLane="1to2_0" departPos="4.60" departSpeed="0.00" departDelay="16.00" arrival="101.00" arrivalLane="outr_0" arrivalPos="195.25" arrivalSpeed="14.00" duration="65.00" routeLength="595.40" waitSteps="3" timeLoss="22.43" rerouteNo="0" devices="tripinfo_flow1.9" vType="Car" speedFactor="1.00" vaporized=""/>
    <tripinfo id="flow2.9" depart="36.00" departLane="8to7_0" departPos="4.60" departSpeed="0.00" departDelay="16.00" arrival="101.00" arrivalLane="outl_0" arrivalPos="195.25" arrivalSpeed="14.00" duration="65.00" routeLength="595.40" waitSteps="3" timeLoss="22.43" rerouteNo="0" devices="tripinfo_flow2.9" vType="Car" speedFactor="1.00" vaporized=""/>
    <tripinfo id="flow1.10" depart="40.00" departLane="1to2_0" departPos="4.60" departSpeed="0.00" departDelay="17.78" arrival="103.00" arrivalLane="outr_0" arrivalPos="195.25" arrivalSpeed="14.00" duration="63.00" routeLength="595.40" waitSteps="1" timeLoss="19.93" rerouteNo="0" devices="tripinfo_flow1.10" vType="Car" speedFactor="1.00" vaporized=""/>
    <tripinfo id="flow2.10" depart="40.00" departLane="8to7_0" departPos="4.60" departSpeed="0.00" departDelay="17.78" arrival="103.00" arrivalLane="outl_0" arrivalPos="195.25" arrivalSpeed="14.00" duration="63.00" routeLength="595.40" waitSteps="1" timeLoss="19.93" rerouteNo="0" devices="tripinfo_flow2.10" vType="Car" speedFactor="1.00" vaporized=""/>
    <tripinfo id="flow4.6" depart="24.00" departLane="12to7_0" departPos="4.60" departSpeed="0.00" departDelay="10.67" arrival="113.00" arrivalLane="outn_0" arrivalPos="198.55" arrivalSpeed="14.00" duration="89.00" routeLength="595.40" waitSteps="23" timeLoss="45.67" rerouteNo="0" devices="tripinfo_flow4.6" vType="Car" speedFactor="1.00" vaporized=""/>
    <tripinfo id="flow3.6" depart="24.00" departLane="9to2_0" departPos="4.60" departSpeed="0.00" departDelay="10.67" arrival="113.00" arrivalLane="outs_0" arrivalPos="198.55" arrivalSpeed="14.00" duration="89.00" routeLength="595.40" waitSteps="23" timeLoss="45.67" rerouteNo="0" devices="tripinfo_flow3.6" vType="Car" speedFactor="1.00" vaporized=""/>
    <tripinfo id="flow4.7" depart="28.00" departLane="12to7_0" departPos="4.60" departSpeed="0.00" departDelay="12.45" arrival="114.00" arrivalLane="outn_0" arrivalPos="198.55" arrivalSpeed="14.00" duration="86.00" routeLength="595.40" waitSteps="23" timeLoss="43.17" rerouteNo="0" devices="tripinfo_flow4.7" vType="Car" speedFactor="1.00" vaporized=""/>
    <tripinfo id="flow3.7" depart="28.00" departLane="9to2_0" departPos="4.60" departSpeed="0.00" departDelay="12.45" arrival="114.00" arrivalLane="outs_0" arrivalPos="198.55" arrivalSpeed="14.00" duration="86.00" routeLength="595.40" waitSteps="23" timeLoss="43.17" rerouteNo="0" devices="tripinfo_flow3.7" vType="Car" speedFactor="1.00" vaporized=""/>
    <tripinfo id="flow4.9" depart="36.00" departLane="12to7_0" departPos="4.60" departSpeed="0.00" departDelay="16.00" arrival="116.00" arrivalLane="outn_0" arrivalPos="198.55" arrivalSpeed="14.00" duration="80.00" routeLength="595.40" waitSteps="22" timeLoss="37.80" rerouteNo="0" devices="tripinfo_flow4.9" vType="Car" speedFactor="1.00" vaporized=""/>
    <tripinfo id="flow3.9" depart="36.00" departLane="9to2_0" departPos="4.60" departSpeed="0.00" departDelay="16.00" arrival="116.00" arrivalLane="outs_0" arrivalPos="198.55" arrivalSpeed="14.00" duration="80.00" routeLength="595.40" waitSteps="22" timeLoss="37.80" rerouteNo="0" devices="tripinfo_flow3.9" vType="Car" speedFactor="1.00" vaporized=""/>
    <tripinfo id="flow4.8" depart="32.00" departLane="12to7_0" departPos="4.60" departSpeed="0.00" departDelay="14.22" arrival="117.00" arrivalLane="outn_0" arrivalPos="198.55" arrivalSpeed="14.00" duration="85.00" routeLength="595.40" waitSteps="18" timeLoss="41.92" rerouteNo="0" devices="tripinfo_flow4.8" vType="Car" speedFactor="1.00" vaporized=""/>
    <tripinfo id="flow3.8" depart="32.00" departLane="9to2_0" departPos="4.60" departSpeed="0.00" departDelay="14.22" arrival="117.00" arrivalLane="outs_0" arrivalPos="198.55" arrivalSpeed="14.00" duration="85.00" routeLength="595.40" waitSteps="18" timeLoss="41.92" rerouteNo="0" devices="tripinfo_flow3.8" vType="Car" speedFactor="1.00" vaporized=""/>
    <tripinfo id="flow4.10" depart="40.00" departLane="12to7_0" departPos="4.60" departSpeed="0.00" departDelay="17.78" arrival="119.00" arrivalLane="outn_0" arrivalPos="198.55" arrivalSpeed="14.00" duration="79.00" routeLength="595.40" waitSteps="13" timeLoss="35.67" rerouteNo="0" devices="tripinfo_flow4.10" vType="Car" speedFactor="1.00" vaporized=""/>
    <tripinfo id="flow3.10" depart="40.00" departLane="9to2_0" departPos="4.60" departSpeed="0.00" departDelay="17.78" arrival="119.00" arrivalLane="outs_0" arrivalPos="198.55" arrivalSpeed="14.00" duration="79.00" routeLength="595.40" waitSteps="13" timeLoss="35.67" rerouteNo="0" devices="tripinfo_flow3.10" vType="Car" speedFactor="1.00" vaporized=""/>
    <tripinfo id="flow4.11" depart="44.00" departLane="12to7_0" departPos="4.60" departSpeed="0.00" departDelay="19.56" arrival="120.00" arrivalLane="outn_0" arrivalPos="198.55" arrivalSpeed="14.00" duration="76.00" routeLength="595.40" waitSteps="10" timeLoss="33.17" rerouteNo="0" devices="tripinfo_flow4.11" vType="Car" speedFactor="1.00" vaporized=""/>
    <tripinfo id="flow3.11" depart="44.00" departLane="9to2_0" departPos="4.60" departSpeed="0.00" departDelay="19.56" arrival="120.00" arrivalLane="outs_0" arrivalPos="198.55" arrivalSpeed="14.00" duration="76.00" routeLength="595.40" waitSteps="10" timeLoss="33.17" rerouteNo="0" devices="tripinfo_flow3.11" vType="Car" speedFactor="1.00" vaporized=""/>
    <tripinfo id="flow4.12" depart="48.00" departLane="12to7_0" departPos="4.60" departSpeed="0.00" departDelay="21.34" arrival="122.00" arrivalLane="outn_0" arrivalPos="198.55" arrivalSpeed="14.00" duration="74.00" routeLength="595.40" waitSteps="8" timeLoss="30.67" rerouteNo="0" devices="tripinfo_flow4.12" vType="Car" speedFactor="1.00" vaporized=""/>
    <tripinfo id="flow3.12" depart="48.00" departLane="9to2_0" departPos="4.60" departSpeed="0.00" departDelay="21.34" arrival="122.00" arrivalLane="outs_0" arrivalPos="198.55" arrivalSpeed="14.00" duration="74.00" routeLength="595.40" waitSteps="8" timeLoss="30.67" rerouteNo="0" devices="tripinfo_flow3.12" vType="Car" speedFactor="1.00" vaporized=""/>
    <tripinfo id="flow4.13" depart="52.00" departLane="12to7_0" departPos="4.60" departSpeed="0.00" departDelay="23.11" arrival="123.00" arrivalLane="outn_0" arrivalPos="198.55" arrivalSpeed="14.00" duration="71.00" routeLength="595.40" waitSteps="5" timeLoss="28.17" rerouteNo="0" devices="tripinfo_flow4.13" vType="Car" speedFactor="1.00" vaporized=""/>
    <tripinfo id="flow3.13" depart="52.00" departLane="9to2_0" departPos="4.60" departSpeed="0.00" departDelay="23.11" arrival="123.00" arrivalLane="outs_0" arrivalPos="198.55" arrivalSpeed="14.00" duration="71.00" routeLength="595.40" waitSteps="5" timeLoss="28.17" rerouteNo="0" devices="tripinfo_flow3.13" vType="Car" speedFactor="1.00" vaporized=""/>
    <tripinfo id="flow1.11" depart="44.00" departLane="1to2_0" departPos="4.60" departSpeed="0.00" departDelay="19.56" arrival="129.00" arrivalLane="outr_0" arrivalPos="195.25" arrivalSpeed="14.00" duration="85.00" routeLength="595.40" waitSteps="17" timeLoss="42.43" rerouteNo="0" devices="tripinfo_flow1.11" vType="Car" speedFactor="1.00" vaporized=""/>
    <tripinfo id="flow2.11" depart="44.00" departLane="8to7_0" departPos="4.60" departSpeed="0.00" departDelay="19.56" arrival="129.00" arrivalLane="outl_0" arrivalPos="195.25" arrivalSpeed="14.00" duration="85.00" routeLength="595.40" waitSteps="17" timeLoss="42.43" rerouteNo="0" devices="tripinfo_flow2.11" vType="Car" speedFactor="1.00" vaporized=""/>
    <tripinfo id="flow1.12" depart="48.00" departLane="1to2_0" departPos="4.60" departSpeed="0.00" departDelay="21.34" arrival="131.00" arrivalLane="outr_0" arrivalPos="195.25" arrivalSpeed="14.00" duration="83.00" routeLength="595.40" waitSteps="15" timeLoss="39.93" rerouteNo="0" devices="tripinfo_flow1.12" vType="Car" speedFactor="1.00" vaporized=""/>
    <tripinfo id="flow2.12" depart="48.00" departLane="8to7_0" departPos="4.60" departSpeed="0.00" departDelay="21.34" arrival="131.00" arrivalLane="outl_0" arrivalPos="195.25" arrivalSpeed="14.00" duration="83.00" routeLength="595.40" waitSteps="15" timeLoss="39.93" rerouteNo="0" devices="tripinfo_flow2.12" vType="Car" speedFactor="1.00" vaporized=""/>
    <tripinfo id="flow1.13" depart="52.00" departLane="1to2_0" departPos="4.60" departSpeed="0.00" departDelay="23.11" arrival="132.00" arrivalLane="outr_0" arrivalPos="195.25" arrivalSpeed="14.00" duration="80.00" routeLength="595.40" waitSteps="14" timeLoss="37.43" rerouteNo="0" devices="tripinfo_flow1.13" vType="Car" speedFactor="1.00" vaporized=""/>
    <tripinfo id="flow2.13" depart="52.00" departLane="8to7_0" departPos="4.60" departSpeed="0.00" departDelay="23.11" arrival="132.00" arrivalLane="outl_0" arrivalPos="195.25" arrivalSpeed="14.00" duration="80.00" routeLength="595.40" waitSteps="14" timeLoss="37.43" rerouteNo="0" devices="tripinfo_flow2.13" vType="Car" speedFactor="1.00" vaporized=""/>
    <tripinfo id="flow1.14" depart="56.00" departLane="1to2_0" departPos="4.60" departSpeed="0.00" departDelay="24.89" arrival="134.00" arrivalLane="outr_0" arrivalPos="195.25" arrivalSpeed="14.00" duration="78.00" routeLength="595.40" waitSteps="12" timeLoss="34.93" rerouteNo="0" devices="tripinfo_flow1.14" vType="Car" speedFactor="1.00" vaporized=""/>
    <tripinfo id="flow2.14" depart="56.00" departLane="8to7_0" departPos="4.60" departSpeed="0.00" departDelay="24.89" arrival="134.00" arrivalLane="outl_0" arrivalPos="195.25" arrivalSpeed="14.00" duration="78.00" routeLength="595.40" waitSteps="12" timeLoss="34.93" rerouteNo="0" devices="tripinfo_flow2.14" vType="Car" speedFactor="1.00" vaporized=""/>
    <tripinfo id="flow1.15" depart="60.00" departLane="1to2_0" departPos="4.60" departSpeed="0.00" departDelay="26.67" arrival="135.00" arrivalLane="outr_0" arrivalPos="195.25" arrivalSpeed="14.00" duration="75.00" routeLength="595.40" waitSteps="10" timeLoss="32.43" rerouteNo="0" devices="tripinfo_flow1.15" vType="Car" speedFactor="1.00" vaporized=""/>
    <tripinfo id="flow2.15" depart="60.00" departLane="8to7_0" departPos="4.60" departSpeed="0.00" departDelay="26.67" arrival="135.00" arrivalLane="outl_0" arrivalPos="195.25" arrivalSpeed="14.00" duration="75.00" routeLength="595.40" waitSteps="10" timeLoss="32.43" rerouteNo="0" devices="tripinfo_flow2.15" vType="Car" speedFactor="1.00" vaporized=""/>
    <tripinfo id="flow1.16" depart="64.00" departLane="1to2_0" departPos="4.60" departSpeed="0.00" departDelay="28.45" arrival="137.00" arrivalLane="outr_0" arrivalPos="195.25" arrivalSpeed="14.00" duration="73.00" routeLength="595.40" waitSteps="7" timeLoss="29.95" rerouteNo="0" devices="tripinfo_flow1.16" vType="Car" speedFactor="1.00" vaporized=""/>
    <tripinfo id="flow2.16" depart="64.00" departLane="8to7_0" departPos="4.60" departSpeed="0.00" departDelay="28.45" arrival="137.00" arrivalLane="outl_0" arrivalPos="195.25" arrivalSpeed="14.00" duration="73.00" routeLength="595.40" waitSteps="7" timeLoss="29.95" rerouteNo="0" devices="tripinfo_flow2.16" vType="Car" speedFactor="1.00" vaporized=""/>
    <tripinfo id="flow1.17" depart="68.00" departLane="1to2_0" departPos="4.60" departSpeed="0.00" departDelay="30.23" arrival="138.00" arrivalLane="outr_0" arrivalPos="195.25" arrivalSpeed="14.00" duration="70.00" routeLength="595.40" waitSteps="5" timeLoss="27.45" rerouteNo="0" devices="tripinfo_flow1.17" vType="Car" speedFactor="1.00" vaporized=""/>
    <tripinfo id="flow2.17" depart="68.00" departLane="8to7_0" departPos="4.60" departSpeed="0.00" departDelay="30.23" arrival="138.00" arrivalLane="outl_0" arrivalPos="195.25" arrivalSpeed="14.00" duration="70.00" routeLength="595.40" waitSteps="5" timeLoss="27.45" rerouteNo="0" devices="tripinfo_flow2.17" vType="Car" speedFactor="1.00" vaporized=""/>
    <tripinfo id="flow4.14" depart="56.00" departLane="12to7_0" departPos="4.60" departSpeed="0.00" departDelay="24.89" arrival="149.00" arrivalLane="outn_0" arrivalPos="198.55" arrivalSpeed="14.00" duration="93.00" routeLength="595.40" waitSteps="21" timeLoss="49.67" rerouteNo="0" devices="tripinfo_flow4.14" vType="Car" speedFactor="1.00" vaporized=""/>
    <tripinfo id="flow3.14" depart="56.00" departLane="9to2_0" departPos="4.60" departSpeed="0.00" departDelay="24.89" arrival="149.00" arrivalLane="outs_0" arrivalPos="198.55" arrivalSpeed="14.00" duration="93.00" routeLength="595.40" waitSteps="21" timeLoss="49.67" rerouteNo="0" devices="tripinfo_flow3.14" vType="Car" speedFactor="1.00" vaporized=""/>
    <tripinfo id="flow4.15" depart="60.00" departLane="12to7_0" departPos="4.60" departSpeed="0.00" departDelay="26.67" arrival="150.00" arrivalLane="outn_0" arrivalPos="198.55" arrivalSpeed="14.00" duration="90.00" routeLength="595.40" waitSteps="20" timeLoss="47.17" rerouteNo="0" devices="tripinfo_flow4.15" vType="Car" speedFactor="1.00" vaporized=""/>
    <tripinfo id="flow3.15" depart="60.00" departLane="9to2_0" departPos="4.60" departSpeed="0.00" departDelay="26.67" arrival="150.00" arrivalLane="outs_0" arrivalPos="198.55" arrivalSpeed="14.00" duration="90.00" routeLength="595.40" waitSteps="20" timeLoss="47.17" rerouteNo="0" devices="tripinfo_flow3.15" vType="Car" speedFactor="1.00" vaporized=""/>
    <tripinfo id="flow4.16" depart="64.00" departLane="12to7_0" departPos="4.60" departSpeed="0.00" departDelay="28.45" arrival="152.00" arrivalLane="outn_0" arrivalPos="198.55" arrivalSpeed="14.00" duration="88.00" routeLength="595.40" waitSteps="16" timeLoss="44.67" rerouteNo="0" devices="tripinfo_flow4.16" vType="Car" speedFactor="1.00" vaporized=""/>
    <tripinfo id="flow3.16" depart="64.00" departLane="9to2_0" departPos="4.60" departSpeed="0.00" departDelay="28.45" arrival="152.00" arrivalLane="outs_0" arrivalPos="198.55" arrivalSpeed="14.00" duration="88.00" routeLength="595.40" waitSteps="16" timeLoss="44.67" rerouteNo="0" devices="tripinfo_flow3.16" vType="Car" speedFactor="1.00" vaporized=""/>
    <tripinfo id="flow4.17" depart="68.00" departLane="12to7_0" departPos="4.60" departSpeed="0.00" departDelay="30.23" arrival="153.00" arrivalLane="outn_0" arrivalPos="198.55" arrivalSpeed="14.00" duration="85.00" routeLength="595.40" waitSteps="16" timeLoss="42.17" rerouteNo="0" devices="tripinfo_flow4.17" vType="Car" speedFactor="1.00" vaporized=""/>
    <tripinfo id="flow3.17" depart="68.00" departLane="9to2_0" departPos="4.60" departSpeed="0.00" departDelay="30.23" arrival="153.00" arrivalLane="outs_0" arrivalPos="198.55" arrivalSpeed="14.00" duration="85.00" routeLength="595.40" waitSteps="16" timeLoss="42.17" rerouteNo="0" devices="tripinfo_flow3.17" vType="Car" speedFactor="1.00" vaporized=""/>
    <tripinfo id="flow4.18" depart="72.00" departLane="12to7_0" departPos="4.60" departSpeed="0.00" departDelay="32.00" arrival="155.00" arrivalLane="outn_0" arrivalPos="198.55" arrivalSpeed="14.00" duration="83.00" routeLength="595.40" waitSteps="13" timeLoss="39.67" rerouteNo="0" devices="tripinfo_flow4.18" vType="Car" speedFactor="1.00" vaporized=""/>
    <tripinfo id="flow3.18" depart="72.00" departLane="9to2_0" departPos="4.60" departSpeed="0.00" departDelay="32.00" arrival="155.00" arrivalLane="outs_0" arrivalPos="198.55" arrivalSpeed="14.00" duration="83.00" routeLength="595.40" waitSteps="13" timeLoss="39.67" rerouteNo="0" devices="tripinfo_flow3.18" vType="Car" speedFactor="1.00" vaporized=""/>
    <tripinfo id="flow4.20" depart="80.00" departLane="12to7_0" departPos="4.60" departSpeed="0.00" departDelay="35.56" arrival="156.00" arrivalLane="outn_0" arrivalPos="198.55" arrivalSpeed="14.00" duration="76.00" routeLength="595.40" waitSteps="6" timeLoss="34.40" rerouteNo="0" devices="tripinfo_flow4.20" vType="Car" speedFactor="1.00" vaporized=""/>
    <tripinfo id="flow3.20" depart="80.00" departLane="9to2_0" departPos="4.60" departSpeed="0.00" departDelay="35.56" arrival="156.00" arrivalLane="outs_0" arrivalPos="198.55" arrivalSpeed="14.00" duration="76.00" routeLength="595.40" waitSteps="6" timeLoss="34.40" rerouteNo="0" devices="tripinfo_flow3.20" vType="Car" speedFactor="1.00" vaporized=""/>
    <tripinfo id="flow4.19" depart="76.00" departLane="12to7_0" departPos="4.60" departSpeed="0.00" departDelay="33.78" arrival="158.00" arrivalLane="outn_0" arrivalPos="198.55" arrivalSpeed="14.00" duration="82.00" routeLength="595.40" waitSteps="13" timeLoss="38.64" rerouteNo="0" devices="tripinfo_flow4.19" vType="Car" speedFactor="1.00" vaporized=""/>
    <tripinfo id="flow3.19" depart="76.00" departLane="9to2_0" departPos="4.60" departSpeed="0.00" departDelay="33.78" arrival="158.00" arrivalLane="outs_0" arrivalPos="198.55" arrivalSpeed="14.00" duration="82.00" routeLength="595.40" waitSteps="13" timeLoss="38.64" rerouteNo="0" devices="tripinfo_flow3.19" vType="Car" speedFactor="1.00" vaporized=""/>
    <tripinfo id="flow4.21" depart="84.00" departLane="12to7_0" departPos="4.60" departSpeed="0.00" departDelay="37.34" arrival="159.00" arrivalLane="outn_0" arrivalPos="198.55" arrivalSpeed="14.00" duration="75.00" routeLength="595.40" waitSteps="7" timeLoss="32.17" rerouteNo="0" devices="tripinfo_flow4.21" vType="Car" speedFactor="1.00" vaporized=""/>
    <tripinfo id="flow3.21" depart="84.00" departLane="9to2_0" departPos="4.60" departSpeed="0.00" departDelay="37.34" arrival="159.00" arrivalLane="outs_0" arrivalPos="198.55" arrivalSpeed="14.00" duration="75.00" routeLength="595.40" waitSteps="7" timeLoss="32.17" rerouteNo="0" devices="tripinfo_flow3.21" vType="Car" speedFactor="1.00" vaporized=""/>
    <tripinfo id="flow1.18" depart="72.00" departLane="1to2_0" departPos="4.60" departSpeed="0.00" departDelay="32.00" arrival="168.00" arrivalLane="outr_0" arrivalPos="195.25" arrivalSpeed="14.00" duration="96.00" routeLength="595.40" waitSteps="22" timeLoss="53.43" rerouteNo="0" devices="tripinfo_flow1.18" vType="Car" speedFactor="1.00" vaporized=""/>