<?xml version="1.0" encoding="UTF-8"?>

<configuration xmlns:xsi="http://www.w3.org/2001/XMLSchema-instance" xsi:noNamespaceSchemaLocation="http://sumo.dlr.de/xsd/sumoConfiguration.xsd">

   <input>
       <net-file value="ciudad2x2.net.xml"/>
       <additional-files value= "ciudad2x2.rou.xml ciudad2x2.add.xml ciudad2x2.det.xml"/>
   </input>

   <time>
       <begin value="0"/>
   </time>

   <processing>
         <time-to-teleport value="-1" />
  </processing>
  
   <report>
       <verbose value="true"/>
       <no-step-log value="true"/>
   </report>

   <output>
	   <queue-output value="ciudad2x2queue.xml"/>
	   <summary-output value="ciudad2x2summary.xml"/> 
	   <tripinfo-output value="ciudad2x2tripinfo.xml"/>

   </output>


</configuration>
