<?xml version="1.0" encoding="UTF-8"?>

<!-- generated on Wed Jun  3 09:39:49 2020 by SUMO gui Version 0.32.0
<?xml version="1.0" encoding="UTF-8"?>

<configuration xmlns:xsi="http://www.w3.org/2001/XMLSchema-instance" xsi:noNamespaceSchemaLocation="http://sumo.dlr.de/xsd/sumoConfiguration.xsd">

    <input>
        <net-file value="ciudad2x2.net.xml"/>
        <additional-files value="ciudad2x2.rou.xml,ciudad2x2.add.xml,ciudad2x2.det.xml"/>
    </input>

    <output>
        <queue-output value="ciudad2x2queue.xml"/>
        <summary-output value="ciudad2x2summary.xml"/>
        <tripinfo-output value="ciudad2x2tripinfo.xml"/>
    </output>

    <time>
        <begin value="0"/>
    </time>

    <processing>
        <time-to-teleport value="-1"/>
    </processing>

    <report>
        <verbose value="true"/>
        <no-step-log value="true"/>
    </report>

    <traci_server>
        <remote-port value="50665"/>
    </traci_server>

</configuration>
-->

<queue-export xmlns:xsi="http://www.w3.org/2001/XMLSchema-instance" xsi:noNamespaceSchemaLocation="http://sumo.dlr.de/xsd/queue_file.xsd">
    <data timestep="0.00">
        <lanes/>
    </data>
    <data timestep="1.00">
        <lanes/>
    </data>
    <data timestep="2.00">
        <lanes/>
    </data>
    <data timestep="3.00">
        <lanes/>
    </data>
    <data timestep="4.00">
        <lanes/>
    </data>
    <data timestep="5.00">
        <lanes/>
    </data>
    <data timestep="6.00">
        <lanes/>
    </data>
    <data timestep="7.00">
        <lanes/>
    </data>
    <data timestep="8.00">
        <lanes/>
    </data>
    <data timestep="9.00">
        <lanes/>
    </data>
    <data timestep="10.00">
        <lanes/>
    </data>
    <data timestep="11.00">
        <lanes/>
    </data>
    <data timestep="12.00">
        <lanes/>
    </data>
    <data timestep="13.00">
        <lanes/>
    </data>
    <data timestep="14.00">
        <lanes/>
    </data>
    <data timestep="15.00">
        <lanes/>
    </data>
    <data timestep="16.00">
        <lanes/>
    </data>
    <data timestep="17.00">
        <lanes/>
    </data>
    <data timestep="18.00">
        <lanes/>
    </data>
    <data timestep="19.00">
        <lanes/>
    </data>
    <data timestep="20.00">
        <lanes/>
    </data>
    <data timestep="21.00">
        <lanes/>
    </data>
    <data timestep="22.00">
        <lanes>
            <lane id="1to2_0" queueing_time="0.00" queueing_length="0.00" queueing_length_experimental="5.50"/>
            <lane id="8to7_0" queueing_time="0.00" queueing_length="0.00" queueing_length_experimental="5.50"/>
        </lanes>
    </data>
    <data timestep="23.00">
        <lanes>
            <lane id="12to7_0" queueing_time="1.00" queueing_length="5.50" queueing_length_experimental="5.50"/>
            <lane id="9to2_0" queueing_time="1.00" queueing_length="5.50" queueing_length_experimental="5.50"/>
        </lanes>
    </data>
    <data timestep="24.00">
        <lanes>
            <lane id="12to7_0" queueing_time="2.00" queueing_length="5.50" queueing_length_experimental="5.50"/>
            <lane id="9to2_0" queueing_time="2.00" queueing_length="5.50" queueing_length_experimental="5.50"/>
        </lanes>
    </data>
    <data timestep="25.00">
        <lanes>
            <lane id="12to7_0" queueing_time="3.00" queueing_length="5.50" queueing_length_experimental="5.50"/>
            <lane id="9to2_0" queueing_time="3.00" queueing_length="5.50" queueing_length_experimental="5.50"/>
        </lanes>
    </data>
    <data timestep="26.00">
        <lanes>
            <lane id="12to7_0" queueing_time="4.00" queueing_length="12.50" queueing_length_experimental="12.50"/>
            <lane id="9to2_0" queueing_time="4.00" queueing_length="12.50" queueing_length_experimental="12.50"/>
        </lanes>
    </data>
    <data timestep="27.00">
        <lanes>
            <lane id="12to7_0" queueing_time="5.00" queueing_length="12.50" queueing_length_experimental="12.50"/>
            <lane id="9to2_0" queueing_time="5.00" queueing_length="12.50" queueing_length_experimental="12.50"/>
        </lanes>
    </data>
    <data timestep="28.00">
        <lanes>
            <lane id="12to7_0" queueing_time="6.00" queueing_length="12.50" queueing_length_experimental="12.50"/>
            <lane id="9to2_0" queueing_time="6.00" queueing_length="12.50" queueing_length_experimental="12.50"/>
        </lanes>
    </data>
    <data timestep="29.00">
        <lanes>
            <lane id="12to7_0" queueing_time="7.00" queueing_length="12.50" queueing_length_experimental="12.50"/>
            <lane id="9to2_0" queueing_time="7.00" queueing_length="12.50" queueing_length_experimental="12.50"/>
        </lanes>
    </data>
    <data timestep="30.00">
        <lanes>
            <lane id="12to7_0" queueing_time="8.00" queueing_length="19.50" queueing_length_experimental="19.50"/>
            <lane id="9to2_0" queueing_time="8.00" queueing_length="19.50" queueing_length_experimental="19.50"/>
        </lanes>
    </data>
    <data timestep="31.00">
        <lanes>
            <lane id="12to7_0" queueing_time="9.00" queueing_length="19.50" queueing_length_experimental="19.50"/>
            <lane id="9to2_0" queueing_time="9.00" queueing_length="19.50" queueing_length_experimental="19.50"/>
        </lanes>
    </data>
    <data timestep="32.00">
        <lanes>
            <lane id="12to7_0" queueing_time="10.00" queueing_length="19.50" queueing_length_experimental="19.50"/>
            <lane id="9to2_0" queueing_time="10.00" queueing_length="19.50" queueing_length_experimental="19.50"/>
        </lanes>
    </data>
    <data timestep="33.00">
        <lanes>
            <lane id="12to7_0" queueing_time="11.00" queueing_length="26.50" queueing_length_experimental="26.50"/>
            <lane id="9to2_0" queueing_time="11.00" queueing_length="26.50" queueing_length_experimental="26.50"/>
        </lanes>
    </data>
    <data timestep="34.00">
        <lanes>
            <lane id="12to7_0" queueing_time="12.00" queueing_length="26.50" queueing_length_experimental="26.50"/>
            <lane id="9to2_0" queueing_time="12.00" queueing_length="26.50" queueing_length_experimental="26.50"/>
        </lanes>
    </data>
    <data timestep="35.00">
        <lanes>
            <lane id="12to7_0" queueing_time="13.00" queueing_length="26.50" queueing_length_experimental="26.50"/>
            <lane id="9to2_0" queueing_time="13.00" queueing_length="26.50" queueing_length_experimental="26.50"/>
        </lanes>
    </data>
    <data timestep="36.00">
        <lanes>
            <lane id="12to7_0" queueing_time="14.00" queueing_length="26.50" queueing_length_experimental="26.50"/>
            <lane id="9to2_0" queueing_time="14.00" queueing_length="26.50" queueing_length_experimental="26.50"/>
        </lanes>
    </data>
    <data timestep="37.00">
        <lanes>
            <lane id="12to7_0" queueing_time="15.00" queueing_length="33.50" queueing_length_experimental="33.50"/>
            <lane id="9to2_0" queueing_time="15.00" queueing_length="33.50" queueing_length_experimental="33.50"/>
        </lanes>
    </data>
    <data timestep="38.00">
        <lanes>
            <lane id="12to7_0" queueing_time="13.00" queueing_length="33.50" queueing_length_experimental="33.50"/>
            <lane id="9to2_0" queueing_time="13.00" queueing_length="33.50" queueing_length_experimental="33.50"/>
        </lanes>
    </data>
    <data timestep="39.00">
        <lanes>
            <lane id="12to7_0" queueing_time="10.00" queueing_length="33.50" queueing_length_experimental="33.50"/>
            <lane id="9to2_0" queueing_time="10.00" queueing_length="33.50" queueing_length_experimental="33.50"/>
        </lanes>
    </data>
    <data timestep="40.00">
        <lanes>
            <lane id="12to7_0" queueing_time="8.00" queueing_length="40.51" queueing_length_experimental="40.51"/>
            <lane id="9to2_0" queueing_time="8.00" queueing_length="40.51" queueing_length_experimental="40.51"/>
        </lanes>
    </data>
    <data timestep="41.00">
        <lanes>
            <lane id="12to7_0" queueing_time="5.00" queueing_length="40.51" queueing_length_experimental="40.51"/>
            <lane id="9to2_0" queueing_time="5.00" queueing_length="40.51" queueing_length_experimental="40.51"/>
        </lanes>
    </data>
    <data timestep="42.00">
        <lanes>
            <lane id="12to7_0" queueing_time="3.00" queueing_length="40.51" queueing_length_experimental="40.51"/>
            <lane id="1to2_0" queueing_time="0.00" queueing_length="0.00" queueing_length_experimental="5.50"/>
            <lane id="8to7_0" queueing_time="0.00" queueing_length="0.00" queueing_length_experimental="5.50"/>
            <lane id="9to2_0" queueing_time="3.00" queueing_length="40.51" queueing_length_experimental="40.51"/>
        </lanes>
    </data>
    <data timestep="43.00">
        <lanes>
            <lane id="12to7_0" queueing_time="0.00" queueing_length="0.00" queueing_length_experimental="39.51"/>
            <lane id="1to2_0" queueing_time="1.00" queueing_length="5.50" queueing_length_experimental="5.50"/>
            <lane id="8to7_0" queueing_time="1.00" queueing_length="5.50" queueing_length_experimental="5.50"/>
            <lane id="9to2_0" queueing_time="0.00" queueing_length="0.00" queueing_length_experimental="39.51"/>
        </lanes>
    </data>
    <data timestep="44.00">
        <lanes>
            <lane id="12to7_0" queueing_time="0.00" queueing_length="0.00" queueing_length_experimental="46.51"/>
            <lane id="1to2_0" queueing_time="2.00" queueing_length="5.50" queueing_length_experimental="5.50"/>
            <lane id="8to7_0" queueing_time="2.00" queueing_length="5.50" queueing_length_experimental="5.50"/>
            <lane id="9to2_0" queueing_time="0.00" queueing_length="0.00" queueing_length_experimental="46.51"/>
        </lanes>
    </data>
    <data timestep="45.00">
        <lanes>
            <lane id="1to2_0" queueing_time="3.00" queueing_length="5.50" queueing_length_experimental="5.50"/>
            <lane id="8to7_0" queueing_time="3.00" queueing_length="5.50" queueing_length_experimental="5.50"/>
        </lanes>
    </data>
    <data timestep="46.00">
        <lanes>
            <lane id="1to2_0" queueing_time="4.00" queueing_length="12.50" queueing_length_experimental="12.50"/>
            <lane id="2to3_0" queueing_time="0.00" queueing_length="0.00" queueing_length_experimental="5.50"/>
            <lane id="7to6_0" queueing_time="0.00" queueing_length="0.00" queueing_length_experimental="5.50"/>
            <lane id="8to7_0" queueing_time="4.00" queueing_length="12.50" queueing_length_experimental="12.50"/>
        </lanes>
    </data>
    <data timestep="47.00">
        <lanes>
            <lane id="1to2_0" queueing_time="5.00" queueing_length="12.50" queueing_length_experimental="12.50"/>
            <lane id="2to3_0" queueing_time="1.00" queueing_length="5.50" queueing_length_experimental="12.50"/>
            <lane id="7to6_0" queueing_time="1.00" queueing_length="5.50" queueing_length_experimental="12.50"/>
            <lane id="8to7_0" queueing_time="5.00" queueing_length="12.50" queueing_length_experimental="12.50"/>
        </lanes>
    </data>
    <data timestep="48.00">
        <lanes>
            <lane id="1to2_0" queueing_time="6.00" queueing_length="12.50" queueing_length_experimental="12.50"/>
            <lane id="2to3_0" queueing_time="2.00" queueing_length="12.50" queueing_length_experimental="19.50"/>
            <lane id="7to6_0" queueing_time="2.00" queueing_length="12.50" queueing_length_experimental="19.50"/>
            <lane id="8to7_0" queueing_time="6.00" queueing_length="12.50" queueing_length_experimental="12.50"/>
        </lanes>
    </data>
    <data timestep="49.00">
        <lanes>
            <lane id="1to2_0" queueing_time="7.00" queueing_length="12.50" queueing_length_experimental="19.50"/>
            <lane id="2to3_0" queueing_time="3.00" queueing_length="19.50" queueing_length_experimental="19.50"/>
            <lane id="7to6_0" queueing_time="3.00" queueing_length="19.50" queueing_length_experimental="19.50"/>
            <lane id="8to7_0" queueing_time="7.00" queueing_length="12.50" queueing_length_experimental="19.50"/>
        </lanes>
    </data>
    <data timestep="50.00">
        <lanes>
            <lane id="1to2_0" queueing_time="8.00" queueing_length="19.50" queueing_length_experimental="19.50"/>
            <lane id="2to3_0" queueing_time="4.00" queueing_length="19.50" queueing_length_experimental="19.50"/>
            <lane id="7to6_0" queueing_time="4.00" queueing_length="19.50" queueing_length_experimental="19.50"/>
            <lane id="8to7_0" queueing_time="8.00" queueing_length="19.50" queueing_length_experimental="19.50"/>
        </lanes>
    </data>
    <data timestep="51.00">
        <lanes>
            <lane id="1to2_0" queueing_time="9.00" queueing_length="19.50" queueing_length_experimental="19.50"/>
            <lane id="2to3_0" queueing_time="5.00" queueing_length="19.50" queueing_length_experimental="26.50"/>
            <lane id="7to6_0" queueing_time="5.00" queueing_length="19.50" queueing_length_experimental="26.50"/>
            <lane id="8to7_0" queueing_time="9.00" queueing_length="19.50" queueing_length_experimental="19.50"/>
        </lanes>
    </data>
    <data timestep="52.00">
        <lanes>
            <lane id="1to2_0" queueing_time="10.00" queueing_length="19.50" queueing_length_experimental="19.50"/>
            <lane id="2to3_0" queueing_time="6.00" queueing_length="26.50" queueing_length_experimental="26.50"/>
            <lane id="7to6_0" queueing_time="6.00" queueing_length="26.50" queueing_length_experimental="26.50"/>
            <lane id="8to7_0" queueing_time="10.00" queueing_length="19.50" queueing_length_experimental="19.50"/>
        </lanes>
    </data>
    <data timestep="53.00">
        <lanes>
            <lane id="1to2_0" queueing_time="11.00" queueing_length="26.50" queueing_length_experimental="26.50"/>
            <lane id="2to3_0" queueing_time="7.00" queueing_length="26.50" queueing_length_experimental="26.50"/>
            <lane id="7to6_0" queueing_time="7.00" queueing_length="26.50" queueing_length_experimental="26.50"/>
            <lane id="8to7_0" queueing_time="11.00" queueing_length="26.50" queueing_length_experimental="26.50"/>
        </lanes>
    </data>
    <data timestep="54.00">
        <lanes>
            <lane id="1to2_0" queueing_time="12.00" queueing_length="26.50" queueing_length_experimental="26.50"/>
            <lane id="2to3_0" queueing_time="8.00" queueing_length="26.50" queueing_length_experimental="26.50"/>
            <lane id="7to6_0" queueing_time="8.00" queueing_length="26.50" queueing_length_experimental="26.50"/>
            <lane id="8to7_0" queueing_time="12.00" queueing_length="26.50" queueing_length_experimental="26.50"/>
        </lanes>
    </data>
    <data timestep="55.00">
        <lanes>
            <lane id="1to2_0" queueing_time="13.00" queueing_length="26.50" queueing_length_experimental="26.50"/>
            <lane id="2to3_0" queueing_time="9.00" queueing_length="26.50" queueing_length_experimental="26.50"/>
            <lane id="7to6_0" queueing_time="9.00" queueing_length="26.50" queueing_length_experimental="26.50"/>
            <lane id="8to7_0" queueing_time="13.00" queueing_length="26.50" queueing_length_experimental="26.50"/>
        </lanes>
    </data>
    <data timestep="56.00">
        <lanes>
            <lane id="12to7_0" queueing_time="0.00" queueing_length="0.00" queueing_length_experimental="4.50"/>
            <lane id="1to2_0" queueing_time="11.00" queueing_length="26.50" queueing_length_experimental="33.50"/>
            <lane id="2to3_0" queueing_time="10.00" queueing_length="26.50" queueing_length_experimental="26.50"/>
            <lane id="7to6_0" queueing_time="10.00" queueing_length="26.50" queueing_length_experimental="26.50"/>
            <lane id="8to7_0" queueing_time="11.00" queueing_length="26.50" queueing_length_experimental="33.50"/>
            <lane id="9to2_0" queueing_time="0.00" queueing_length="0.00" queueing_length_experimental="4.50"/>
        </lanes>
    </data>
    <data timestep="57.00">
        <lanes>
            <lane id="12to7_0" queueing_time="1.00" queueing_length="4.50" queueing_length_experimental="4.50"/>
            <lane id="1to2_0" queueing_time="8.00" queueing_length="33.50" queueing_length_experimental="33.50"/>
            <lane id="2to3_0" queueing_time="11.00" queueing_length="26.50" queueing_length_experimental="26.50"/>
            <lane id="7to6_0" queueing_time="11.00" queueing_length="26.50" queueing_length_experimental="26.50"/>
            <lane id="8to7_0" queueing_time="8.00" queueing_length="33.50" queueing_length_experimental="33.50"/>
            <lane id="9to2_0" queueing_time="1.00" queueing_length="4.50" queueing_length_experimental="4.50"/>
        </lanes>
    </data>
    <data timestep="58.00">
        <lanes>
            <lane id="12to7_0" queueing_time="2.00" queueing_length="4.50" queueing_length_experimental="4.50"/>
            <lane id="1to2_0" queueing_time="6.00" queueing_length="33.50" queueing_length_experimental="33.50"/>
            <lane id="2to3_0" queueing_time="12.00" queueing_length="26.50" queueing_length_experimental="26.50"/>
            <lane id="7to6_0" queueing_time="12.00" queueing_length="26.50" queueing_length_experimental="26.50"/>
            <lane id="8to7_0" queueing_time="6.00" queueing_length="33.50" queueing_length_experimental="33.50"/>
            <lane id="9to2_0" queueing_time="2.00" queueing_length="4.50" queueing_length_experimental="4.50"/>
        </lanes>
    </data>
    <data timestep="59.00">
        <lanes>
            <lane id="12to7_0" queueing_time="3.00" queueing_length="4.50" queueing_length_experimental="4.50"/>
            <lane id="1to2_0" queueing_time="3.00" queueing_length="33.50" queueing_length_experimental="33.50"/>
            <lane id="2to3_0" queueing_time="13.00" queueing_length="26.50" queueing_length_experimental="26.50"/>
            <lane id="7to6_0" queueing_time="13.00" queueing_length="26.50" queueing_length_experimental="26.50"/>
            <lane id="8to7_0" queueing_time="3.00" queueing_length="33.50" queueing_length_experimental="33.50"/>
            <lane id="9to2_0" queueing_time="3.00" queueing_length="4.50" queueing_length_experimental="4.50"/>
        </lanes>
    </data>
    <data timestep="60.00">
        <lanes>
            <lane id="12to7_0" queueing_time="4.00" queueing_length="4.50" queueing_length_experimental="4.50"/>
            <lane id="1to2_0" queueing_time="1.00" queueing_length="40.51" queueing_length_experimental="40.51"/>
            <lane id="2to3_0" queueing_time="14.00" queueing_length="26.50" queueing_length_experimental="26.50"/>
            <lane id="7to6_0" queueing_time="14.00" queueing_length="26.50" queueing_length_experimental="26.50"/>
            <lane id="8to7_0" queueing_time="1.00" queueing_length="40.51" queueing_length_experimental="40.51"/>
            <lane id="9to2_0" queueing_time="4.00" queueing_length="4.50" queueing_length_experimental="4.50"/>
        </lanes>
    </data>
    <data timestep="61.00">
        <lanes>
            <lane id="12to7_0" queueing_time="5.00" queueing_length="4.50" queueing_length_experimental="4.50"/>
            <lane id="1to2_0" queueing_time="0.00" queueing_length="0.00" queueing_length_experimental="39.51"/>
            <lane id="2to3_0" queueing_time="15.00" queueing_length="26.50" queueing_length_experimental="26.50"/>
            <lane id="7to6_0" queueing_time="15.00" queueing_length="26.50" queueing_length_experimental="26.50"/>
            <lane id="8to7_0" queueing_time="0.00" queueing_length="0.00" queueing_length_experimental="39.51"/>
            <lane id="9to2_0" queueing_time="5.00" queueing_length="4.50" queueing_length_experimental="4.50"/>
        </lanes>
    </data>
    <data timestep="62.00">
        <lanes>
            <lane id="12to7_0" queueing_time="6.00" queueing_length="11.50" queueing_length_experimental="11.50"/>
            <lane id="2to3_0" queueing_time="16.00" queueing_length="26.50" queueing_length_experimental="26.50"/>
            <lane id="7to6_0" queueing_time="16.00" queueing_length="26.50" queueing_length_experimental="26.50"/>
            <lane id="9to2_0" queueing_time="6.00" queueing_length="11.50" queueing_length_experimental="11.50"/>
        </lanes>
    </data>
    <data timestep="63.00">
        <lanes>
            <lane id="12to7_0" queueing_time="7.00" queueing_length="11.50" queueing_length_experimental="11.50"/>
            <lane id="2to3_0" queueing_time="17.00" queueing_length="26.50" queueing_length_experimental="26.50"/>
            <lane id="7to6_0" queueing_time="17.00" queueing_length="26.50" queueing_length_experimental="26.50"/>
            <lane id="9to2_0" queueing_time="7.00" queueing_length="11.50" queueing_length_experimental="11.50"/>
        </lanes>
    </data>
    <data timestep="64.00">
        <lanes>
            <lane id="12to7_0" queueing_time="8.00" queueing_length="11.50" queueing_length_experimental="11.50"/>
            <lane id="2to3_0" queueing_time="18.00" queueing_length="26.50" queueing_length_experimental="26.50"/>
            <lane id="7to6_0" queueing_time="18.00" queueing_length="26.50" queueing_length_experimental="26.50"/>
            <lane id="9to2_0" queueing_time="8.00" queueing_length="11.50" queueing_length_experimental="11.50"/>
        </lanes>
    </data>
    <data timestep="65.00">
        <lanes>
            <lane id="12to7_0" queueing_time="9.00" queueing_length="11.50" queueing_length_experimental="11.50"/>
            <lane id="2to3_0" queueing_time="19.00" queueing_length="26.50" queueing_length_experimental="26.50"/>
            <lane id="7to6_0" queueing_time="19.00" queueing_length="26.50" queueing_length_experimental="26.50"/>
            <lane id="9to2_0" queueing_time="9.00" queueing_length="11.50" queueing_length_experimental="11.50"/>
        </lanes>
    </data>
    <data timestep="66.00">
        <lanes>
            <lane id="12to7_0" queueing_time="10.00" queueing_length="18.50" queueing_length_experimental="18.50"/>
            <lane id="2to3_0" queueing_time="20.00" queueing_length="26.50" queueing_length_experimental="26.50"/>
            <lane id="7to6_0" queueing_time="20.00" queueing_length="26.50" queueing_length_experimental="26.50"/>
            <lane id="9to2_0" queueing_time="10.00" queueing_length="18.50" queueing_length_experimental="18.50"/>
        </lanes>
    </data>
    <data timestep="67.00">
        <lanes>
            <lane id="12to7_0" queueing_time="11.00" queueing_length="18.50" queueing_length_experimental="18.50"/>
            <lane id="2to3_0" queueing_time="21.00" queueing_length="26.50" queueing_length_experimental="26.50"/>
            <lane id="7to6_0" queueing_time="21.00" queueing_length="26.50" queueing_length_experimental="26.50"/>
            <lane id="9to2_0" queueing_time="11.00" queueing_length="18.50" queueing_length_experimental="18.50"/>
        </lanes>
    </data>
    <data timestep="68.00">
        <lanes>
            <lane id="12to7_0" queueing_time="12.00" queueing_length="18.50" queueing_length_experimental="18.50"/>
            <lane id="2to3_0" queueing_time="22.00" queueing_length="26.50" queueing_length_experimental="26.50"/>
            <lane id="7to6_0" queueing_time="22.00" queueing_length="26.50" queueing_length_experimental="26.50"/>
            <lane id="9to2_0" queueing_time="12.00" queueing_length="18.50" queueing_length_experimental="18.50"/>
        </lanes>
    </data>
    <data timestep="69.00">
        <lanes>
            <lane id="12to7_0" queueing_time="13.00" queueing_length="25.50" queueing_length_experimental="25.50"/>
            <lane id="2to3_0" queueing_time="22.00" queueing_length="26.50" queueing_length_experimental="26.50"/>
            <lane id="2to6_0" queueing_time="1.00" queueing_length="5.50" queueing_length_experimental="5.50"/>
            <lane id="7to3_0" queueing_time="1.00" queueing_length="5.50" queueing_length_experimental="5.50"/>
            <lane id="7to6_0" queueing_time="22.00" queueing_length="26.50" queueing_length_experimental="26.50"/>
            <lane id="9to2_0" queueing_time="13.00" queueing_length="25.50" queueing_length_experimental="25.50"/>
        </lanes>
    </data>
    <data timestep="70.00">
        <lanes>
            <lane id="12to7_0" queueing_time="14.00" queueing_length="25.50" queueing_length_experimental="25.50"/>
            <lane id="2to3_0" queueing_time="22.00" queueing_length="26.50" queueing_length_experimental="26.50"/>
            <lane id="2to6_0" queueing_time="2.00" queueing_length="12.50" queueing_length_experimental="12.50"/>
            <lane id="7to3_0" queueing_time="2.00" queueing_length="12.50" queueing_length_experimental="12.50"/>
            <lane id="7to6_0" queueing_time="22.00" queueing_length="26.50" queueing_length_experimental="26.50"/>
            <lane id="9to2_0" queueing_time="14.00" queueing_length="25.50" queueing_length_experimental="25.50"/>
        </lanes>
    </data>
    <data timestep="71.00">
        <lanes>
            <lane id="12to7_0" queueing_time="15.00" queueing_length="25.50" queueing_length_experimental="25.50"/>
            <lane id="2to3_0" queueing_time="20.00" queueing_length="26.50" queueing_length_experimental="26.50"/>
            <lane id="2to6_0" queueing_time="3.00" queueing_length="12.50" queueing_length_experimental="19.50"/>
            <lane id="7to3_0" queueing_time="3.00" queueing_length="12.50" queueing_length_experimental="19.50"/>
            <lane id="7to6_0" queueing_time="20.00" queueing_length="26.50" queueing_length_experimental="26.50"/>
            <lane id="9to2_0" queueing_time="15.00" queueing_length="25.50" queueing_length_experimental="25.50"/>
        </lanes>
    </data>
    <data timestep="72.00">
        <lanes>
            <lane id="12to7_0" queueing_time="11.00" queueing_length="25.50" queueing_length_experimental="25.50"/>
            <lane id="2to3_0" queueing_time="0.00" queueing_length="0.00" queueing_length_experimental="25.50"/>
            <lane id="2to6_0" queueing_time="4.00" queueing_length="19.50" queueing_length_experimental="19.50"/>
            <lane id="7to3_0" queueing_time="4.00" queueing_length="19.50" queueing_length_experimental="19.50"/>
            <lane id="7to6_0" queueing_time="0.00" queueing_length="0.00" queueing_length_experimental="25.50"/>
            <lane id="9to2_0" queueing_time="11.00" queueing_length="25.50" queueing_length_experimental="25.50"/>
        </lanes>
    </data>
    <data timestep="73.00">
        <lanes>
            <lane id="12to7_0" queueing_time="8.00" queueing_length="32.50" queueing_length_experimental="32.50"/>
            <lane id="1to2_0" queueing_time="1.00" queueing_length="5.01" queueing_length_experimental="5.01"/>
            <lane id="2to6_0" queueing_time="5.00" queueing_length="19.50" queueing_length_experimental="19.50"/>
            <lane id="7to3_0" queueing_time="5.00" queueing_length="19.50" queueing_length_experimental="19.50"/>
            <lane id="8to7_0" queueing_time="1.00" queueing_length="5.01" queueing_length_experimental="5.01"/>
            <lane id="9to2_0" queueing_time="8.00" queueing_length="32.50" queueing_length_experimental="32.50"/>
        </lanes>
    </data>
    <data timestep="74.00">
        <lanes>
            <lane id="12to7_0" queueing_time="6.00" queueing_length="32.50" queueing_length_experimental="32.50"/>
            <lane id="1to2_0" queueing_time="2.00" queueing_length="5.01" queueing_length_experimental="12.01"/>
            <lane id="2to6_0" queueing_time="6.00" queueing_length="19.50" queueing_length_experimental="19.50"/>
            <lane id="7to3_0" queueing_time="6.00" queueing_length="19.50" queueing_length_experimental="19.50"/>
            <lane id="8to7_0" queueing_time="2.00" queueing_length="5.01" queueing_length_experimental="12.01"/>
            <lane id="9to2_0" queueing_time="6.00" queueing_length="32.50" queueing_length_experimental="32.50"/>
        </lanes>
    </data>
    <data timestep="75.00">
        <lanes>
            <lane id="12to7_0" queueing_time="3.00" queueing_length="32.50" queueing_length_experimental="32.50"/>
            <lane id="1to2_0" queueing_time="3.00" queueing_length="12.01" queueing_length_experimental="12.01"/>
            <lane id="2to6_0" queueing_time="7.00" queueing_length="19.50" queueing_length_experimental="19.50"/>
            <lane id="7to3_0" queueing_time="7.00" queueing_length="19.50" queueing_length_experimental="19.50"/>
            <lane id="8to7_0" queueing_time="3.00" queueing_length="12.01" queueing_length_experimental="12.01"/>
            <lane id="9to2_0" queueing_time="3.00" queueing_length="32.50" queueing_length_experimental="32.50"/>
        </lanes>
    </data>
    <data timestep="76.00">
        <lanes>
            <lane id="12to7_0" queueing_time="1.00" queueing_length="39.50" queueing_length_experimental="39.50"/>
            <lane id="1to2_0" queueing_time="4.00" queueing_length="12.01" queueing_length_experimental="12.01"/>
            <lane id="2to6_0" queueing_time="8.00" queueing_length="19.50" queueing_length_experimental="19.50"/>
            <lane id="7to3_0" queueing_time="8.00" queueing_length="19.50" queueing_length_experimental="19.50"/>
            <lane id="8to7_0" queueing_time="4.00" queueing_length="12.01" queueing_length_experimental="12.01"/>
            <lane id="9to2_0" queueing_time="1.00" queueing_length="39.50" queueing_length_experimental="39.50"/>
        </lanes>
    </data>
    <data timestep="77.00">
        <lanes>