<?xml version="1.0" encoding="UTF-8"?>

<!-- generated on Sat Apr 17 18:47:18 2021 by Eclipse SUMO GUI Version 1.8.0
<configuration xmlns:xsi="http://www.w3.org/2001/XMLSchema-instance" xsi:noNamespaceSchemaLocation="http://sumo.dlr.de/xsd/sumoConfiguration.xsd">

    <input>
        <net-file value="data/cross.net.xml"/>
        <route-files value="data/cross.rou.xml"/>
    </input>

    <output>
        <tripinfo-output value="data/results/2021-04-17/tripinfo__t_900_900__d_0.0_0.0.xml"/>
    </output>

    <time>
        <begin value="0"/>
        <step-length value="0.2"/>
    </time>

    <processing>
        <collision.mingap-factor value="0"/>
    </processing>

    <report>
        <verbose value="true"/>
        <no-step-log value="true"/>
    </report>

    <traci_server>
        <remote-port value="61304"/>
    </traci_server>

    <gui_only>
        <tracker-interval value="0.2"/>
    </gui_only>

</configuration>
-->

<tripinfos xmlns:xsi="http://www.w3.org/2001/XMLSchema-instance" xsi:noNamespaceSchemaLocation="http://sumo.dlr.de/xsd/tripinfo_file.xsd">
    <tripinfo id="down_0" depart="0.00" departLane="9to2_0" departPos="5.10" departSpeed="14.72" departDelay="0.00" arrival="101.60" arrivalLane="outs_0" arrivalPos="496.00" arrivalSpeed="14.72" duration="101.60" routeLength="1494.90" waitingTime="0.00" waitingCount="0" stopTime="0.00" timeLoss="0.06" rerouteNo="0" devices="tripinfo_down_0" vType="Car@down_0" speedFactor="1.06" vaporized=""/>
    <tripinfo id="up_4" depart="2.00" departLane="12to7_0" departPos="5.10" departSpeed="14.31" departDelay="0.00" arrival="106.60" arrivalLane="outn_0" arrivalPos="496.00" arrivalSpeed="14.31" duration="104.60" routeLength="1494.90" waitingTime="0.00" waitingCount="0" stopTime="0.00" timeLoss="0.05" rerouteNo="0" devices="tripinfo_up_4" vType="Car@up_4" speedFactor="1.03" vaporized=""/>
    <tripinfo id="down_2" depart="1.40" departLane="9to2_0" departPos="5.10" departSpeed="14.03" departDelay="0.40" arrival="108.20" arrivalLane="outs_0" arrivalPos="496.00" arrivalSpeed="14.03" duration="106.80" routeLength="1494.90" waitingTime="0.00" waitingCount="0" stopTime="0.00" timeLoss="0.13" rerouteNo="0" devices="tripinfo_down_2" vType="Car@down_2" speedFactor="1.01" vaporized=""/>
    <tripinfo id="down_6" depart="4.00" departLane="9to2_0" departPos="5.10" departSpeed="14.53" departDelay="0.00" arrival="109.00" arrivalLane="outs_0" arrivalPos="496.00" arrivalSpeed="14.12" duration="105.00" routeLength="1494.90" waitingTime="0.00" waitingCount="0" stopTime="0.00" timeLoss="2.00" rerouteNo="0" devices="tripinfo_down_6" vType="Car@down_6" speedFactor="1.05" vaporized=""/>
    <tripinfo id="right_3" depart="2.00" departLane="1to2_0" departPos="5.10" departSpeed="15.04" departDelay="0.00" arrival="116.00" arrivalLane="outr_0" arrivalPos="492.80" arrivalSpeed="15.04" duration="114.00" routeLength="1494.90" waitingTime="0.20" waitingCount="1" stopTime="2.20" timeLoss="12.27" rerouteNo="0" devices="tripinfo_right_3" vType="Car@right_3" speedFactor="1.08" vaporized=""/>
    <tripinfo id="down_8" depart="5.20" departLane="9to2_0" departPos="5.10" departSpeed="13.03" departDelay="0.20" arrival="124.00" arrivalLane="outs_0" arrivalPos="496.00" arrivalSpeed="13.03" duration="118.80" routeLength="1494.90" waitingTime="0.00" waitingCount="0" stopTime="0.00" timeLoss="3.87" rerouteNo="0" devices="tripinfo_down_8" vType="Car@down_8" speedFactor="0.94" vaporized=""/>
    <tripinfo id="up_5" depart="3.00" departLane="12to7_0" departPos="5.10" departSpeed="11.54" departDelay="0.00" arrival="133.40" arrivalLane="outn_0" arrivalPos="496.00" arrivalSpeed="11.54" duration="130.40" routeLength="1494.90" waitingTime="0.00" waitingCount="0" stopTime="0.00" timeLoss="0.89" rerouteNo="0" devices="tripinfo_up_5" vType="Car@up_5" speedFactor="0.83" vaporized=""/>
    <tripinfo id="up_10" depart="7.00" departLane="12to7_0" departPos="5.10" departSpeed="15.15" departDelay="0.00" arrival="134.20" arrivalLane="outn_0" arrivalPos="496.00" arrivalSpeed="11.96" duration="127.20" routeLength="1494.90" waitingTime="0.00" waitingCount="0" stopTime="0.00" timeLoss="28.43" rerouteNo="0" devices="tripinfo_up_10" vType="Car@up_10" speedFactor="1.09" vaporized=""/>
    <tripinfo id="up_13" depart="8.80" departLane="12to7_0" departPos="5.10" departSpeed="15.60" departDelay="0.80" arrival="134.80" arrivalLane="outn_0" arrivalPos="496.00" arrivalSpeed="11.89" duration="126.00" routeLength="1494.90" waitingTime="0.00" waitingCount="0" stopTime="0.00" timeLoss="30.14" rerouteNo="0" devices="tripinfo_up_13" vType="Car@up_13" speedFactor="1.12" vaporized=""/>
    <tripinfo id="up_18" depart="12.00" departLane="12to7_0" departPos="5.10" departSpeed="13.00" departDelay="0.00" arrival="135.60" arrivalLane="outn_0" arrivalPos="496.00" arrivalSpeed="11.78" duration="123.60" routeLength="1494.90" waitingTime="0.00" waitingCount="0" stopTime="0.00" timeLoss="8.61" rerouteNo="0" devices="tripinfo_up_18" vType="Car@up_18" speedFactor="0.94" vaporized=""/>
    <tripinfo id="up_19" depart="15.00" departLane="12to7_0" departPos="5.10" departSpeed="16.09" departDelay="2.00" arrival="136.40" arrivalLane="outn_0" arrivalPos="496.00" arrivalSpeed="12.01" duration="121.40" routeLength="1494.90" waitingTime="0.00" waitingCount="0" stopTime="0.00" timeLoss="28.36" rerouteNo="0" devices="tripinfo_up_19" vType="Car@up_19" speedFactor="1.16" vaporized=""/>
    <tripinfo id="left_1" depart="0.00" departLane="8to7_0" departPos="5.10" departSpeed="13.03" departDelay="0.00" arrival="136.60" arrivalLane="outl_0" arrivalPos="492.80" arrivalSpeed="13.03" duration="136.60" routeLength="1494.90" waitingTime="0.40" waitingCount="2" stopTime="0.40" timeLoss="21.44" rerouteNo="0" devices="tripinfo_left_1" vType="Car@left_1" speedFactor="0.94" vaporized=""/>
    <tripinfo id="up_21" depart="16.00" departLane="12to7_0" departPos="5.10" departSpeed="14.03" departDelay="2.00" arrival="137.00" arrivalLane="outn_0" arrivalPos="496.00" arrivalSpeed="11.81" duration="121.00" routeLength="1494.90" waitingTime="0.00" waitingCount="0" stopTime="0.00" timeLoss="14.44" rerouteNo="0" devices="tripinfo_up_21" vType="Car@up_21" speedFactor="1.01" vaporized=""/>
    <tripinfo id="up_22" depart="17.40" departLane="12to7_0" departPos="5.10" departSpeed="13.54" departDelay="2.40" arrival="137.80" arrivalLane="outn_0" arrivalPos="496.00" arrivalSpeed="11.84" duration="120.40" routeLength="1494.90" waitingTime="0.00" waitingCount="0" stopTime="0.00" timeLoss="9.95" rerouteNo="0" devices="tripinfo_up_22" vType="Car@up_22" speedFactor="0.98" vaporized=""/>
    <tripinfo id="left_9" depart="6.00" departLane="8to7_0" departPos="5.10" departSpeed="11.90" departDelay="0.00" arrival="147.20" arrivalLane="outl_0" arrivalPos="492.80" arrivalSpeed="11.90" duration="141.20" routeLength="1494.90" waitingTime="0.20" waitingCount="1" stopTime="5.20" timeLoss="10.23" rerouteNo="0" devices="tripinfo_left_9" vType="Car@left_9" speedFactor="0.86" vaporized=""/>
    <tripinfo id="right_7" depart="5.00" departLane="1to2_0" departPos="5.10" departSpeed="12.31" departDelay="0.00" arrival="147.60" arrivalLane="outr_0" arrivalPos="492.80" arrivalSpeed="12.31" duration="142.60" routeLength="1494.90" waitingTime="0.40" waitingCount="2" stopTime="0.40" timeLoss="20.64" rerouteNo="0" devices="tripinfo_right_7" vType="Car@right_7" speedFactor="0.89" vaporized=""/>
    <tripinfo id="left_11" depart="8.60" departLane="8to7_0" departPos="5.10" departSpeed="14.26" departDelay="1.60" arrival="147.80" arrivalLane="outl_0" arrivalPos="492.80" arrivalSpeed="12.14" duration="139.20" routeLength="1494.90" waitingTime="6.60" waitingCount="1" stopTime="0.00" timeLoss="34.29" rerouteNo="0" devices="tripinfo_left_11" vType="Car@left_11" speedFactor="1.03" vaporized=""/>
    <tripinfo id="right_12" depart="8.00" departLane="1to2_0" departPos="5.10" departSpeed="14.54" departDelay="0.00" arrival="148.40" arrivalLane="outr_0" arrivalPos="492.80" arrivalSpeed="12.65" duration="140.40" routeLength="1494.90" waitingTime="3.20" waitingCount="2" stopTime="0.00" timeLoss="37.47" rerouteNo="0" devices="tripinfo_right_12" vType="Car@right_12" speedFactor="1.05" vaporized=""/>
    <tripinfo id="right_14" depart="9.40" departLane="1to2_0" departPos="5.10" departSpeed="13.77" departDelay="0.40" arrival="150.40" arrivalLane="outr_0" arrivalPos="492.80" arrivalSpeed="13.64" duration="141.00" routeLength="1494.90" waitingTime="6.00" waitingCount="2" stopTime="0.00" timeLoss="32.36" rerouteNo="0" devices="tripinfo_right_14" vType="Car@right_14" speedFactor="0.99" vaporized=""/>
    <tripinfo id="left_16" depart="11.00" departLane="8to7_0" departPos="5.10" departSpeed="12.20" departDelay="0.00" arrival="151.00" arrivalLane="outl_0" arrivalPos="492.80" arrivalSpeed="12.19" duration="140.00" routeLength="1494.90" waitingTime="6.40" waitingCount="1" stopTime="0.00" timeLoss="17.43" rerouteNo="0" devices="tripinfo_left_16" vType="Car@left_16" speedFactor="0.88" vaporized=""/>
    <tripinfo id="left_20" depart="13.40" departLane="8to7_0" departPos="5.10" departSpeed="14.14" departDelay="0.40" arrival="151.80" arrivalLane="outl_0" arrivalPos="492.80" arrivalSpeed="12.45" duration="138.40" routeLength="1494.90" waitingTime="8.20" waitingCount="1" stopTime="0.00" timeLoss="32.56" rerouteNo="0" devices="tripinfo_left_20" vType="Car@left_20" speedFactor="1.02" vaporized=""/>
    <tripinfo id="right_15" depart="11.00" departLane="1to2_0" departPos="5.10" departSpeed="12.87" departDelay="0.00" arrival="155.00" arrivalLane="outr_0" arrivalPos="492.80" arrivalSpeed="12.87" duration="144.00" routeLength="1494.90" waitingTime="5.00" waitingCount="2" stopTime="0.00" timeLoss="27.80" rerouteNo="0" devices="tripinfo_right_15" vType="Car@right_15" speedFactor="0.93" vaporized=""/>
    <tripinfo id="left_25" depart="19.00" departLane="8to7_0" departPos="5.10" departSpeed="12.12" departDelay="0.00" arrival="156.80" arrivalLane="outl_0" arrivalPos="492.80" arrivalSpeed="12.12" duration="137.80" routeLength="1494.90" waitingTime="3.20" waitingCount="1" stopTime="0.00" timeLoss="14.42" rerouteNo="0" devices="tripinfo_left_25" vType="Car@left_25" speedFactor="0.87" vaporized=""/>
    <tripinfo id="right_17" depart="12.80" departLane="1to2_0" departPos="5.10" departSpeed="13.08" departDelay="0.80" arrival="157.20" arrivalLane="outr_0" arrivalPos="492.80" arrivalSpeed="13.05" duration="144.40" routeLength="1494.90" waitingTime="7.40" waitingCount="2" stopTime="0.00" timeLoss="30.07" rerouteNo="0" devices="tripinfo_right_17" vType="Car@right_17" speedFactor="0.94" vaporized=""/>
    <tripinfo id="left_28" depart="22.20" departLane="8to7_0" departPos="5.10" departSpeed="15.72" departDelay="2.20" arrival="157.60" arrivalLane="outl_0" arrivalPos="492.80" arrivalSpeed="12.52" duration="135.40" routeLength="1494.90" waitingTime="5.00" waitingCount="1" stopTime="0.00" timeLoss="40.16" rerouteNo="0" devices="tripinfo_left_28" vType="Car@left_28" speedFactor="1.13" vaporized=""/>
    <tripinfo id="left_29" depart="23.00" departLane="8to7_0" departPos="5.10" departSpeed="12.94" departDelay="2.00" arrival="158.40" arrivalLane="outl_0" arrivalPos="492.80" arrivalSpeed="12.42" duration="135.40" routeLength="1494.90" waitingTime="7.20" waitingCount="1" stopTime="0.00" timeLoss="19.81" rerouteNo="0" devices="tripinfo_left_29" vType="Car@left_29" speedFactor="0.93" vaporized=""/>
    <tripinfo id="left_33" depart="26.00" departLane="8to7_0" departPos="5.10" departSpeed="16.28" departDelay="3.00" arrival="159.20" arrivalLane="outl_0" arrivalPos="492.80" arrivalSpeed="12.71" duration="133.20" routeLength="1494.90" waitingTime="9.20" waitingCount="1" stopTime="0.00" timeLoss="41.21" rerouteNo="0" devices="tripinfo_left_33" vType="Car@left_33" speedFactor="1.17" vaporized=""/>
    <tripinfo id="left_36" depart="26.80" departLane="8to7_0" departPos="5.10" departSpeed="13.52" departDelay="1.80" arrival="160.20" arrivalLane="outl_0" arrivalPos="492.80" arrivalSpeed="12.99" duration="133.40" routeLength="1494.90" waitingTime="10.20" waitingCount="1" stopTime="0.00" timeLoss="22.70" rerouteNo="0" devices="tripinfo_left_36" vType="Car@left_36" speedFactor="0.97" vaporized=""/>
    <tripinfo id="left_41" depart="30.00" departLane="8to7_0" departPos="5.10" departSpeed="13.29" departDelay="0.00" arrival="163.20" arrivalLane="outl_0" arrivalPos="492.80" arrivalSpeed="13.28" duration="133.20" routeLength="1494.90" waitingTime="8.80" waitingCount="1" stopTime="0.00" timeLoss="20.75" rerouteNo="0" devices="tripinfo_left_41" vType="Car@left_41" speedFactor="0.96" vaporized=""/>
    <tripinfo id="right_24" depart="19.00" departLane="1to2_0" departPos="5.10" departSpeed="11.47" departDelay="0.00" arrival="165.40" arrivalLane="outr_0" arrivalPos="492.80" arrivalSpeed="11.47" duration="146.40" routeLength="1494.90" waitingTime="0.00" waitingCount="0" stopTime="0.00" timeLoss="15.99" rerouteNo="0" devices="tripinfo_right_24" vType="Car@right_24" speedFactor="0.83" vaporized=""/>
    <tripinfo id="right_26" depart="21.20" departLane="1to2_0" departPos="5.10" departSpeed="12.74" departDelay="1.20" arrival="166.20" arrivalLane="outr_0" arrivalPos="492.80" arrivalSpeed="11.72" duration="145.00" routeLength="1494.90" waitingTime="1.20" waitingCount="1" stopTime="0.00" timeLoss="27.62" rerouteNo="0" devices="tripinfo_right_26" vType="Car@right_26" speedFactor="0.92" vaporized=""/>
    <tripinfo id="right_30" depart="24.60" departLane="1to2_0" departPos="5.10" departSpeed="16.37" departDelay="2.60" arrival="167.00" arrivalLane="outr_0" arrivalPos="492.80" arrivalSpeed="11.98" duration="142.40" routeLength="1494.90" waitingTime="3.20" waitingCount="1" stopTime="0.00" timeLoss="50.96" rerouteNo="0" devices="tripinfo_right_30" vType="Car@right_30" speedFactor="1.18" vaporized=""/>
    <tripinfo id="right_31" depart="26.20" departLane="1to2_0" departPos="5.10" departSpeed="16.04" departDelay="3.20" arrival="167.60" arrivalLane="outr_0" arrivalPos="492.80" arrivalSpeed="11.89" duration="141.40" routeLength="1494.90" waitingTime="5.00" waitingCount="1" stopTime="0.00" timeLoss="48.12" rerouteNo="0" devices="tripinfo_right_31" vType="Car@right_31" speedFactor="1.15" vaporized=""/>
    <tripinfo id="right_34" depart="27.20" departLane="1to2_0" departPos="5.10" departSpeed="13.82" departDelay="3.20" arrival="170.00" arrivalLane="outr_0" arrivalPos="492.80" arrivalSpeed="13.67" duration="142.80" routeLength="1494.90" waitingTime="8.20" waitingCount="2" stopTime="0.00" timeLoss="34.62" rerouteNo="0" devices="tripinfo_right_34" vType="Car@right_34" speedFactor="0.99" vaporized=""/>
    <tripinfo id="right_35" depart="29.00" departLane="1to2_0" departPos="5.10" departSpeed="14.16" departDelay="4.00" arrival="172.00" arrivalLane="outr_0" arrivalPos="492.80" arrivalSpeed="14.09" duration="143.00" routeLength="1494.90" waitingTime="10.60" waitingCount="2" stopTime="0.00" timeLoss="37.32" rerouteNo="0" devices="tripinfo_right_35" vType="Car@right_35" speedFactor="1.02" vaporized=""/>
    <tripinfo id="left_48" depart="39.00" departLane="8to7_0" departPos="5.10" departSpeed="12.18" departDelay="0.00" arrival="173.00" arrivalLane="outl_0" arrivalPos="492.80" arrivalSpeed="12.18" duration="134.00" routeLength="1494.90" waitingTime="0.00" waitingCount="0" stopTime="0.00" timeLoss="11.19" rerouteNo="0" devices="tripinfo_left_48" vType="Car@left_48" speedFactor="0.88" vaporized=""/>
    <tripinfo id="right_42" depart="36.00" departLane="1to2_0" departPos="5.10" departSpeed="15.17" departDelay="0.00" arrival="173.20" arrivalLane="outr_0" arrivalPos="492.80" arrivalSpeed="14.79" duration="137.20" routeLength="1494.90" waitingTime="12.20" waitingCount="2" stopTime="0.00" timeLoss="38.49" rerouteNo="0" devices="tripinfo_right_42" vType="Car@right_42" speedFactor="1.09" vaporized=""/>
    <tripinfo id="left_53" depart="46.00" departLane="8to7_0" departPos="5.10" departSpeed="15.22" departDelay="0.00" arrival="173.60" arrivalLane="outl_0" arrivalPos="492.80" arrivalSpeed="12.46" duration="127.60" routeLength="1494.90" waitingTime="1.20" waitingCount="1" stopTime="0.00" timeLoss="29.37" rerouteNo="0" devices="tripinfo_left_53" vType="Car@left_53" speedFactor="1.10" vaporized=""/>
    <tripinfo id="left_57" depart="48.00" departLane="8to7_0" departPos="5.10" departSpeed="15.87" departDelay="0.00" arrival="174.40" arrivalLane="outl_0" arrivalPos="492.80" arrivalSpeed="12.59" duration="126.40" routeLength="1494.90" waitingTime="4.00" waitingCount="1" stopTime="0.00" timeLoss="32.08" rerouteNo="0" devices="tripinfo_left_57" vType="Car@left_57" speedFactor="1.14" vaporized=""/>
    <tripinfo id="left_58" depart="49.00" departLane="8to7_0" departPos="5.10" departSpeed="14.22" departDelay="0.00" arrival="175.00" arrivalLane="outl_0" arrivalPos="492.80" arrivalSpeed="12.40" duration="126.00" routeLength="1494.90" waitingTime="3.00" waitingCount="1" stopTime="0.00" timeLoss="20.82" rerouteNo="0" devices="tripinfo_left_58" vType="Car@left_58" speedFactor="1.02" vaporized=""/>
    <tripinfo id="right_44" depart="37.40" departLane="1to2_0" departPos="5.10" departSpeed="14.49" departDelay="0.40" arrival="176.80" arrivalLane="outr_0" arrivalPos="492.80" arrivalSpeed="14.49" duration="139.40" routeLength="1494.90" waitingTime="10.80" waitingCount="2" stopTime="0.00" timeLoss="36.08" rerouteNo="0" devices="tripinfo_right_44" vType="Car@right_44" speedFactor="1.04" vaporized=""/>
    <tripinfo id="right_52" depart="44.00" departLane="1to2_0" departPos="5.10" departSpeed="14.12" departDelay="0.00" arrival="180.20" arrivalLane="outr_0" arrivalPos="492.80" arrivalSpeed="14.12" duration="136.20" routeLength="1494.90" waitingTime="8.00" waitingCount="1" stopTime="0.00" timeLoss="30.27" rerouteNo="0" devices="tripinfo_right_52" vType="Car@right_52" speedFactor="1.02" vaporized=""/>
    <tripinfo id="left_65" depart="58.00" departLane="8to7_0" departPos="5.10" departSpeed="12.26" departDelay="0.00" arrival="181.60" arrivalLane="outl_0" arrivalPos="492.80" arrivalSpeed="12.25" duration="123.60" routeLength="1494.90" waitingTime="0.00" waitingCount="0" stopTime="0.00" timeLoss="1.53" rerouteNo="0" devices="tripinfo_left_65" vType="Car@left_65" speedFactor="0.88" vaporized=""/>
    <tripinfo id="left_66" depart="59.80" departLane="8to7_0" departPos="5.10" departSpeed="12.60" departDelay="0.80" arrival="182.60" arrivalLane="outl_0" arrivalPos="492.80" arrivalSpeed="12.33" duration="122.80" routeLength="1494.90" waitingTime="0.00" waitingCount="0" stopTime="0.00" timeLoss="4.06" rerouteNo="0" devices="tripinfo_left_66" vType="Car@left_66" speedFactor="0.91" vaporized=""/>
    <tripinfo id="right_54" depart="47.00" departLane="1to2_0" departPos="5.10" departSpeed="13.93" departDelay="0.00" arrival="183.20" arrivalLane="outr_0" arrivalPos="492.80" arrivalSpeed="13.93" duration="136.20" routeLength="1494.90" waitingTime="8.00" waitingCount="1" stopTime="0.00" timeLoss="28.92" rerouteNo="0" devices="tripinfo_right_54" vType="Car@right_54" speedFactor="1.00" vaporized=""/>
    <tripinfo id="down_37" depart="26.00" departLane="9to2_0" departPos="5.10" departSpeed="16.39" departDelay="0.00" arrival="184.20" arrivalLane="outs_0" arrivalPos="496.00" arrivalSpeed="16.35" duration="158.20" routeLength="1494.90" waitingTime="0.60" waitingCount="2" stopTime="39.60" timeLoss="27.35" rerouteNo="0" devices="tripinfo_down_37" vType="Car@down_37" speedFactor="1.18" vaporized=""/>
    <tripinfo id="right_60" depart="52.00" departLane="1to2_0" departPos="5.10" departSpeed="15.04" departDelay="0.00" arrival="184.20" arrivalLane="outr_0" arrivalPos="492.80" arrivalSpeed="14.40" duration="132.20" routeLength="1494.90" waitingTime="10.00" waitingCount="1" stopTime="0.00" timeLoss="32.68" rerouteNo="0" devices="tripinfo_right_60" vType="Car@right_60" speedFactor="1.08" vaporized=""/>
    <tripinfo id="right_62" depart="53.40" departLane="1to2_0" departPos="5.10" departSpeed="14.11" departDelay="0.40" arrival="188.20" arrivalLane="outr_0" arrivalPos="492.80" arrivalSpeed="14.10" duration="134.80" routeLength="1494.90" waitingTime="10.20" waitingCount="1" stopTime="0.00" timeLoss="28.66" rerouteNo="0" devices="tripinfo_right_62" vType="Car@right_62" speedFactor="1.02" vaporized=""/>
    <tripinfo id="down_38" depart="28.00" departLane="9to2_0" departPos="5.10" departSpeed="15.31" departDelay="0.00" arrival="188.80" arrivalLane="outs_0" arrivalPos="496.00" arrivalSpeed="15.30" duration="160.80" routeLength="1494.90" waitingTime="36.40" waitingCount="2" stopTime="0.00" timeLoss="63.08" rerouteNo="0" devices="tripinfo_down_38" vType="Car@down_38" speedFactor="1.10" vaporized=""/>
    <tripinfo id="right_63" depart="55.00" departLane="1to2_0" departPos="5.10" departSpeed="13.71" departDelay="0.00" arrival="191.60" arrivalLane="outr_0" arrivalPos="492.80" arrivalSpeed="13.70" duration="136.60" routeLength="1494.90" waitingTime="11.00" waitingCount="1" stopTime="0.00" timeLoss="27.55" rerouteNo="0" devices="tripinfo_right_63" vType="Car@right_63" speedFactor="0.99" vaporized=""/>
    <tripinfo id="down_40" depart="29.20" departLane="9to2_0" departPos="5.10" departSpeed="14.31" departDelay="0.20" arrival="193.20" arrivalLane="outs_0" arrivalPos="496.00" arrivalSpeed="14.31" duration="164.00" routeLength="1494.90" waitingTime="34.40" waitingCount="2" stopTime="0.00" timeLoss="59.51" rerouteNo="0" devices="tripinfo_down_40" vType="Car@down_40" speedFactor="1.03" vaporized=""/>
    <tripinfo id="down_45" depart="37.00" departLane="9to2_0" departPos="5.10" departSpeed="15.11" departDelay="0.00" arrival="195.00" arrivalLane="outs_0" arrivalPos="496.00" arrivalSpeed="14.98" duration="158.00" routeLength="1494.90" waitingTime="32.60" waitingCount="2" stopTime="0.00" timeLoss="58.96" rerouteNo="0" devices="tripinfo_down_45" vType="Car@down_45" speedFactor="1.09" vaporized=""/>
    <tripinfo id="up_23" depart="18.60" departLane="12to7_0" departPos="5.10" departSpeed="12.36" departDelay="0.60" arrival="204.00" arrivalLane="outn_0" arrivalPos="496.00" arrivalSpeed="12.36" duration="185.40" routeLength="1494.90" waitingTime="0.40" waitingCount="2" stopTime="43.60" timeLoss="20.65" rerouteNo="0" devices="tripinfo_up_23" vType="Car@up_23" speedFactor="0.89" vaporized=""/>
    <tripinfo id="down_47" depart="39.00" departLane="9to2_0" departPos="5.10" departSpeed="12.51" departDelay="0.00" arrival="204.20" arrivalLane="outs_0" arrivalPos="496.00" arrivalSpeed="12.51" duration="165.20" routeLength="1494.90" waitingTime="23.40" waitingCount="1" stopTime="0.00" timeLoss="45.69" rerouteNo="0" devices="tripinfo_down_47" vType="Car@down_47" speedFactor="0.90" vaporized=""/>
    <tripinfo id="up_27" depart="20.60" departLane="12to7_0" departPos="5.10" departSpeed="13.18" departDelay="0.60" arrival="205.60" arrivalLane="outn_0" arrivalPos="496.00" arrivalSpeed="13.03" duration="185.00" routeLength="1494.90" waitingTime="47.00" waitingCount="2" stopTime="0.00" timeLoss="71.45" rerouteNo="0" devices="tripinfo_up_27" vType="Car@up_27" speedFactor="0.95" vaporized=""/>
    <tripinfo id="up_32" depart="23.00" departLane="12to7_0" departPos="5.10" departSpeed="13.96" departDelay="0.00" arrival="207.20" arrivalLane="outn_0" arrivalPos="496.00" arrivalSpeed="13.79" duration="184.20" routeLength="1494.90" waitingTime="50.40" waitingCount="2" stopTime="0.00" timeLoss="77.02" rerouteNo="0" devices="tripinfo_up_32" vType="Car@up_32" speedFactor="1.01" vaporized=""/>
    <tripinfo id="down_49" depart="41.00" departLane="9to2_0" departPos="5.10" departSpeed="11.81" departDelay="0.00" arrival="208.80" arrivalLane="outs_0" arrivalPos="496.00" arrivalSpeed="11.81" duration="167.80" routeLength="1494.90" waitingTime="22.40" waitingCount="1" stopTime="0.00" timeLoss="41.20" rerouteNo="0" devices="tripinfo_down_49" vType="Car@down_49" speedFactor="0.85" vaporized=""/>
    <tripinfo id="down_50" depart="42.80" departLane="9to2_0" departPos="5.10" departSpeed="11.87" departDelay="0.80" arrival="211.00" arrivalLane="outs_0" arrivalPos="496.00" arrivalSpeed="11.85" duration="168.20" routeLength="1494.90" waitingTime="23.80" waitingCount="1" stopTime="0.00" timeLoss="42.15" rerouteNo="0" devices="tripinfo_down_50" vType="Car@down_50" speedFactor="0.85" vaporized=""/>
    <tripinfo id="down_59" depart="51.00" departLane="9to2_0" departPos="5.10" departSpeed="13.47" departDelay="0.00" arrival="211.60" arrivalLane="outs_0" arrivalPos="496.00" arrivalSpeed="12.06" duration="160.60" routeLength="1494.90" waitingTime="22.20" waitingCount="1" stopTime="0.00" timeLoss="49.59" rerouteNo="0" devices="tripinfo_down_59" vType="Car@down_59" speedFactor="0.97" vaporized=""/>
    <tripinfo id="up_39" depart="28.00" departLane="12to7_0" departPos="5.10" departSpeed="12.51" departDelay="0.00" arrival="213.00" arrivalLane="outn_0" arrivalPos="496.00" arrivalSpeed="12.51" duration="185.00" routeLength="1494.90" waitingTime="42.40" waitingCount="2" stopTime="0.00" timeLoss="65.42" rerouteNo="0" devices="tripinfo_up_39" vType="Car@up_39" speedFactor="0.90" vaporized=""/>
    <tripinfo id="up_43" depart="36.00" departLane="12to7_0" departPos="5.10" departSpeed="14.41" departDelay="0.00" arrival="213.80" arrivalLane="outn_0" arrivalPos="496.00" arrivalSpeed="12.80" duration="177.80" routeLength="1494.90" waitingTime="44.20" waitingCount="2" stopTime="0.00" timeLoss="73.94" rerouteNo="0" devices="tripinfo_up_43" vType="Car@up_43" speedFactor="1.04" vaporized=""/>
    <tripinfo id="left_74" depart="69.00" departLane="8to7_0" departPos="5.10" departSpeed="13.27" departDelay="0.00" arrival="214.40" arrivalLane="outl_0" arrivalPos="492.80" arrivalSpeed="13.27" duration="145.40" routeLength="1494.90" waitingTime="0.60" waitingCount="1" stopTime="21.20" timeLoss="11.44" rerouteNo="0" devices="tripinfo_left_74" vType="Car@left_74" speedFactor="0.96" vaporized=""/>
    <tripinfo id="up_46" depart="37.40" departLane="12to7_0" departPos="5.10" departSpeed="13.85" departDelay="0.40" arrival="215.20" arrivalLane="outn_0" arrivalPos="496.00" arrivalSpeed="13.60" duration="177.80" routeLength="1494.90" waitingTime="45.60" waitingCount="2" stopTime="0.00" timeLoss="69.87" rerouteNo="0" devices="tripinfo_up_46" vType="Car@up_46" speedFactor="1.00" vaporized=""/>
    <tripinfo id="left_76" depart="71.00" departLane="8to7_0" departPos="5.10" departSpeed="14.34" departDelay="1.00" arrival="215.20" arrivalLane="outl_0" arrivalPos="492.80" arrivalSpeed="13.43" duration="144.20" routeLength="1494.90" waitingTime="22.60" waitingCount="1" stopTime="0.00" timeLoss="39.84" rerouteNo="0" devices="tripinfo_left_76" vType="Car@left_76" speedFactor="1.03" vaporized=""/>
    <tripinfo id="left_79" depart="73.00" departLane="8to7_0" departPos="5.10" departSpeed="15.10" departDelay="0.00" arrival="215.80" arrivalLane="outl_0" arrivalPos="492.80" arrivalSpeed="13.47" duration="142.80" routeLength="1494.90" waitingTime="24.00" waitingCount="1" stopTime="0.00" timeLoss="43.74" rerouteNo="0" devices="tripinfo_left_79" vType="Car@left_79" speedFactor="1.09" vaporized=""/>
    <tripinfo id="up_51" depart="42.00" departLane="12to7_0" departPos="5.10" departSpeed="16.24" departDelay="0.00" arrival="216.00" arrivalLane="outn_0" arrivalPos="496.00" arrivalSpeed="13.94" duration="174.00" routeLength="1494.90" waitingTime="49.80" waitingCount="2" stopTime="0.00" timeLoss="81.77" rerouteNo="0" devices="tripinfo_up_51" vType="Car@up_51" speedFactor="1.17" vaporized=""/>
    <tripinfo id="left_82" depart="75.00" departLane="8to7_0" departPos="5.10" departSpeed="14.12" departDelay="0.00" arrival="218.20" arrivalLane="outl_0" arrivalPos="492.80" arrivalSpeed="14.07" duration="143.20" routeLength="1494.90" waitingTime="24.80" waitingCount="1" stopTime="0.00" timeLoss="37.31" rerouteNo="0" devices="tripinfo_left_82" vType="Car@left_82" speedFactor="1.02" vaporized=""/>
    <tripinfo id="up_55" depart="47.00" departLane="12to7_0" departPos="5.10" departSpeed="13.83" departDelay="0.00" arrival="220.40" arrivalLane="outn_0" arrivalPos="496.00" arrivalSpeed="13.83" duration="173.40" routeLength="1494.90" waitingTime="40.40" waitingCount="2" stopTime="0.00" timeLoss="65.33" rerouteNo="0" devices="tripinfo_up_55" vType="Car@up_55" speedFactor="1.00" vaporized=""/>
    <tripinfo id="left_85" depart="78.00" departLane="8to7_0" departPos="5.10" departSpeed="13.56" departDelay="0.00" arrival="223.20" arrivalLane="outl_0" arrivalPos="492.80" arrivalSpeed="13.55" duration="145.20" routeLength="1494.90" waitingTime="22.80" waitingCount="1" stopTime="0.00" timeLoss="34.92" rerouteNo="0" devices="tripinfo_left_85" vType="Car@left_85" speedFactor="0.98" vaporized=""/>
    <tripinfo id="left_90" depart="82.00" departLane="8to7_0" departPos="5.10" departSpeed="14.12" departDelay="0.00" arrival="224.20" arrivalLane="outl_0" arrivalPos="492.80" arrivalSpeed="13.74" duration="142.20" routeLength="1494.90" waitingTime="22.80" waitingCount="1" stopTime="0.00" timeLoss="36.27" rerouteNo="0" devices="tripinfo_left_90" vType="Car@left_90" speedFactor="1.02" vaporized=""/>
    <tripinfo id="left_96" depart="88.00" departLane="8to7_0" departPos="5.10" departSpeed="14.03" departDelay="0.00" arrival="226.40" arrivalLane="outl_0" arrivalPos="492.80" arrivalSpeed="13.99" duration="138.40" routeLength="1494.90" waitingTime="19.00" waitingCount="1" stopTime="0.00" timeLoss="31.72" rerouteNo="0" devices="tripinfo_left_96" vType="Car@left_96" speedFactor="1.01" vaporized=""/>
    <tripinfo id="up_56" depart="48.20" departLane="12to7_0" departPos="5.10" departSpeed="12.49" departDelay="0.20" arrival="226.60" arrivalLane="outn_0" arrivalPos="496.00" arrivalSpeed="12.48" duration="178.40" routeLength="1494.90" waitingTime="36.00" waitingCount="2" stopTime="0.00" timeLoss="58.54" rerouteNo="0" devices="tripinfo_up_56" vType="Car@up_56" speedFactor="0.90" vaporized=""/>