<?xml version="1.0" encoding="UTF-8"?>

<!-- generated on Sat Apr 17 12:40:42 2021 by Eclipse SUMO GUI Version 1.8.0
<configuration xmlns:xsi="http://www.w3.org/2001/XMLSchema-instance" xsi:noNamespaceSchemaLocation="http://sumo.dlr.de/xsd/sumoConfiguration.xsd">

    <input>
        <net-file value="data/cross.net.xml"/>
        <route-files value="data/cross.rou.xml"/>
    </input>

    <output>
        <tripinfo-output value="data/results/2021-04-17/tripinfo__t_900_900__d_0.0_0.0.xml"/>
    </output>

    <time>
        <begin value="0"/>
        <step-length value="0.2"/>
    </time>

    <processing>
        <collision.mingap-factor value="0"/>
    </processing>

    <report>
        <verbose value="true"/>
        <no-step-log value="true"/>
    </report>

    <traci_server>
        <remote-port value="65001"/>
    </traci_server>

    <gui_only>
        <tracker-interval value="0.2"/>
    </gui_only>

</configuration>
-->

<tripinfos xmlns:xsi="http://www.w3.org/2001/XMLSchema-instance" xsi:noNamespaceSchemaLocation="http://sumo.dlr.de/xsd/tripinfo_file.xsd">
    <tripinfo id="down_0" depart="0.00" departLane="9to2_0" departPos="5.10" departSpeed="14.72" departDelay="0.00" arrival="101.60" arrivalLane="outs_0" arrivalPos="496.00" arrivalSpeed="14.72" duration="101.60" routeLength="1494.90" waitingTime="0.00" waitingCount="0" stopTime="0.00" timeLoss="0.06" rerouteNo="0" devices="tripinfo_down_0" vType="Car@down_0" speedFactor="1.06" vaporized=""/>
    <tripinfo id="up_4" depart="2.00" departLane="12to7_0" departPos="5.10" departSpeed="14.31" departDelay="0.00" arrival="106.60" arrivalLane="outn_0" arrivalPos="496.00" arrivalSpeed="14.31" duration="104.60" routeLength="1494.90" waitingTime="0.00" waitingCount="0" stopTime="0.00" timeLoss="0.05" rerouteNo="0" devices="tripinfo_up_4" vType="Car@up_4" speedFactor="1.03" vaporized=""/>
    <tripinfo id="down_2" depart="1.40" departLane="9to2_0" departPos="5.10" departSpeed="14.03" departDelay="0.40" arrival="108.20" arrivalLane="outs_0" arrivalPos="496.00" arrivalSpeed="14.03" duration="106.80" routeLength="1494.90" waitingTime="0.00" waitingCount="0" stopTime="0.00" timeLoss="0.13" rerouteNo="0" devices="tripinfo_down_2" vType="Car@down_2" speedFactor="1.01" vaporized=""/>
    <tripinfo id="down_6" depart="4.00" departLane="9to2_0" departPos="5.10" departSpeed="14.53" departDelay="0.00" arrival="109.00" arrivalLane="outs_0" arrivalPos="496.00" arrivalSpeed="14.12" duration="105.00" routeLength="1494.90" waitingTime="0.00" waitingCount="0" stopTime="0.00" timeLoss="2.00" rerouteNo="0" devices="tripinfo_down_6" vType="Car@down_6" speedFactor="1.05" vaporized=""/>
    <tripinfo id="right_3" depart="2.00" departLane="1to2_0" departPos="5.10" departSpeed="15.04" departDelay="0.00" arrival="116.00" arrivalLane="outr_0" arrivalPos="492.80" arrivalSpeed="15.04" duration="114.00" routeLength="1494.90" waitingTime="0.20" waitingCount="1" stopTime="2.20" timeLoss="12.27" rerouteNo="0" devices="tripinfo_right_3" vType="Car@right_3" speedFactor="1.08" vaporized=""/>
    <tripinfo id="down_8" depart="5.20" departLane="9to2_0" departPos="5.10" departSpeed="13.03" departDelay="0.20" arrival="124.00" arrivalLane="outs_0" arrivalPos="496.00" arrivalSpeed="13.03" duration="118.80" routeLength="1494.90" waitingTime="0.00" waitingCount="0" stopTime="0.00" timeLoss="3.87" rerouteNo="0" devices="tripinfo_down_8" vType="Car@down_8" speedFactor="0.94" vaporized=""/>
    <tripinfo id="up_5" depart="3.00" departLane="12to7_0" departPos="5.10" departSpeed="11.54" departDelay="0.00" arrival="133.40" arrivalLane="outn_0" arrivalPos="496.00" arrivalSpeed="11.54" duration="130.40" routeLength="1494.90" waitingTime="0.00" waitingCount="0" stopTime="0.00" timeLoss="0.89" rerouteNo="0" devices="tripinfo_up_5" vType="Car@up_5" speedFactor="0.83" vaporized=""/>
    <tripinfo id="up_10" depart="7.00" departLane="12to7_0" departPos="5.10" departSpeed="15.15" departDelay="0.00" arrival="134.20" arrivalLane="outn_0" arrivalPos="496.00" arrivalSpeed="11.96" duration="127.20" routeLength="1494.90" waitingTime="0.00" waitingCount="0" stopTime="0.00" timeLoss="28.43" rerouteNo="0" devices="tripinfo_up_10" vType="Car@up_10" speedFactor="1.09" vaporized=""/>
    <tripinfo id="up_13" depart="8.80" departLane="12to7_0" departPos="5.10" departSpeed="15.60" departDelay="0.80" arrival="134.80" arrivalLane="outn_0" arrivalPos="496.00" arrivalSpeed="11.89" duration="126.00" routeLength="1494.90" waitingTime="0.00" waitingCount="0" stopTime="0.00" timeLoss="30.14" rerouteNo="0" devices="tripinfo_up_13" vType="Car@up_13" speedFactor="1.12" vaporized=""/>
    <tripinfo id="up_18" depart="12.00" departLane="12to7_0" departPos="5.10" departSpeed="13.00" departDelay="0.00" arrival="135.60" arrivalLane="outn_0" arrivalPos="496.00" arrivalSpeed="11.78" duration="123.60" routeLength="1494.90" waitingTime="0.00" waitingCount="0" stopTime="0.00" timeLoss="8.61" rerouteNo="0" devices="tripinfo_up_18" vType="Car@up_18" speedFactor="0.94" vaporized=""/>
    <tripinfo id="up_19" depart="15.00" departLane="12to7_0" departPos="5.10" departSpeed="16.09" departDelay="2.00" arrival="136.40" arrivalLane="outn_0" arrivalPos="496.00" arrivalSpeed="12.01" duration="121.40" routeLength="1494.90" waitingTime="0.00" waitingCount="0" stopTime="0.00" timeLoss="28.36" rerouteNo="0" devices="tripinfo_up_19" vType="Car@up_19" speedFactor="1.16" vaporized=""/>
    <tripinfo id="left_1" depart="0.00" departLane="8to7_0" departPos="5.10" departSpeed="13.03" departDelay="0.00" arrival="136.60" arrivalLane="outl_0" arrivalPos="492.80" arrivalSpeed="13.03" duration="136.60" routeLength="1494.90" waitingTime="0.40" waitingCount="2" stopTime="0.40" timeLoss="21.44" rerouteNo="0" devices="tripinfo_left_1" vType="Car@left_1" speedFactor="0.94" vaporized=""/>
    <tripinfo id="up_21" depart="16.00" departLane="12to7_0" departPos="5.10" departSpeed="14.03" departDelay="2.00" arrival="137.00" arrivalLane="outn_0" arrivalPos="496.00" arrivalSpeed="11.81" duration="121.00" routeLength="1494.90" waitingTime="0.00" waitingCount="0" stopTime="0.00" timeLoss="14.44" rerouteNo="0" devices="tripinfo_up_21" vType="Car@up_21" speedFactor="1.01" vaporized=""/>
    <tripinfo id="up_22" depart="17.40" departLane="12to7_0" departPos="5.10" departSpeed="13.54" departDelay="2.40" arrival="137.80" arrivalLane="outn_0" arrivalPos="496.00" arrivalSpeed="11.84" duration="120.40" routeLength="1494.90" waitingTime="0.00" waitingCount="0" stopTime="0.00" timeLoss="9.95" rerouteNo="0" devices="tripinfo_up_22" vType="Car@up_22" speedFactor="0.98" vaporized=""/>
</tripinfos>
