<?xml version="1.0" encoding="UTF-8"?>

<!-- generated on Wed Mar 31 21:37:34 2021 by Eclipse SUMO GUI Version 1.8.0
<configuration xmlns:xsi="http://www.w3.org/2001/XMLSchema-instance" xsi:noNamespaceSchemaLocation="http://sumo.dlr.de/xsd/sumoConfiguration.xsd">

    <input>
        <net-file value="data/cross.net.xml"/>
        <route-files value="data/cross.rou.xml"/>
    </input>

    <output>
        <tripinfo-output value="data/results/2021-03-31/tripinfo__t_900_900__d_0.0_0.0.xml"/>
    </output>

    <time>
        <begin value="0"/>
        <step-length value="0.2"/>
    </time>

    <processing>
        <collision.mingap-factor value="0"/>
    </processing>

    <report>
        <verbose value="true"/>
        <no-step-log value="true"/>
    </report>

    <traci_server>
        <remote-port value="59172"/>
    </traci_server>

    <gui_only>
        <tracker-interval value="0.2"/>
    </gui_only>

</configuration>
-->

<tripinfos xmlns:xsi="http://www.w3.org/2001/XMLSchema-instance" xsi:noNamespaceSchemaLocation="http://sumo.dlr.de/xsd/tripinfo_file.xsd">
    <tripinfo id="down_0" depart="0.00" departLane="9to2_0" departPos="5.10" departSpeed="14.72" departDelay="0.00" arrival="101.60" arrivalLane="outs_0" arrivalPos="496.00" arrivalSpeed="14.72" duration="101.60" routeLength="1494.90" waitingTime="0.00" waitingCount="0" stopTime="0.00" timeLoss="0.06" rerouteNo="0" devices="tripinfo_down_0" vType="Car@down_0" speedFactor="1.06" vaporized=""/>
    <tripinfo id="down_3" depart="2.00" departLane="9to2_0" departPos="5.10" departSpeed="15.04" departDelay="0.00" arrival="102.60" arrivalLane="outs_0" arrivalPos="496.00" arrivalSpeed="14.81" duration="100.60" routeLength="1494.90" waitingTime="0.00" waitingCount="0" stopTime="0.00" timeLoss="1.18" rerouteNo="0" devices="tripinfo_down_3" vType="Car@down_3" speedFactor="1.08" vaporized=""/>
    <tripinfo id="down_6" depart="4.00" departLane="9to2_0" departPos="5.10" departSpeed="14.53" departDelay="0.00" arrival="107.20" arrivalLane="outs_0" arrivalPos="496.00" arrivalSpeed="14.52" duration="103.20" routeLength="1494.90" waitingTime="0.00" waitingCount="0" stopTime="0.00" timeLoss="0.11" rerouteNo="0" devices="tripinfo_down_6" vType="Car@down_6" speedFactor="1.05" vaporized=""/>
    <tripinfo id="left_2" depart="1.00" departLane="8to7_0" departPos="5.10" departSpeed="14.03" departDelay="0.00" arrival="119.40" arrivalLane="outl_0" arrivalPos="492.80" arrivalSpeed="14.03" duration="118.40" routeLength="1494.90" waitingTime="0.00" waitingCount="0" stopTime="0.20" timeLoss="11.64" rerouteNo="0" devices="tripinfo_left_2" vType="Car@left_2" speedFactor="1.01" vaporized=""/>
    <tripinfo id="right_4" depart="3.00" departLane="1to2_0" departPos="5.10" departSpeed="14.31" departDelay="0.00" arrival="119.80" arrivalLane="outr_0" arrivalPos="492.80" arrivalSpeed="14.31" duration="116.80" routeLength="1494.90" waitingTime="0.00" waitingCount="0" stopTime="0.20" timeLoss="11.96" rerouteNo="0" devices="tripinfo_right_4" vType="Car@right_4" speedFactor="1.03" vaporized=""/>
    <tripinfo id="right_10" depart="9.00" departLane="1to2_0" departPos="5.10" departSpeed="15.15" departDelay="0.00" arrival="120.40" arrivalLane="outr_0" arrivalPos="492.80" arrivalSpeed="14.46" duration="111.40" routeLength="1494.90" waitingTime="0.00" waitingCount="0" stopTime="0.00" timeLoss="12.72" rerouteNo="0" devices="tripinfo_right_10" vType="Car@right_10" speedFactor="1.09" vaporized=""/>
    <tripinfo id="right_11" depart="10.40" departLane="1to2_0" departPos="5.10" departSpeed="14.26" departDelay="0.40" arrival="125.00" arrivalLane="outr_0" arrivalPos="492.80" arrivalSpeed="14.25" duration="114.60" routeLength="1494.90" waitingTime="0.00" waitingCount="0" stopTime="0.00" timeLoss="9.63" rerouteNo="0" devices="tripinfo_right_11" vType="Car@right_11" speedFactor="1.03" vaporized=""/>
    <tripinfo id="left_7" depart="4.00" departLane="8to7_0" departPos="5.10" departSpeed="12.31" departDelay="0.00" arrival="126.00" arrivalLane="outl_0" arrivalPos="492.80" arrivalSpeed="12.31" duration="122.00" routeLength="1494.90" waitingTime="0.00" waitingCount="0" stopTime="0.00" timeLoss="0.46" rerouteNo="0" devices="tripinfo_left_7" vType="Car@left_7" speedFactor="0.89" vaporized=""/>
    <tripinfo id="right_12" depart="12.20" departLane="1to2_0" departPos="5.10" departSpeed="14.54" departDelay="1.20" arrival="128.00" arrivalLane="outr_0" arrivalPos="492.80" arrivalSpeed="14.53" duration="115.80" routeLength="1494.90" waitingTime="0.40" waitingCount="1" stopTime="0.00" timeLoss="12.83" rerouteNo="0" devices="tripinfo_right_12" vType="Car@right_12" speedFactor="1.05" vaporized=""/>
    <tripinfo id="up_1" depart="1.00" departLane="12to7_0" departPos="5.10" departSpeed="13.03" departDelay="0.00" arrival="141.40" arrivalLane="outn_0" arrivalPos="496.00" arrivalSpeed="13.03" duration="140.40" routeLength="1494.90" waitingTime="0.00" waitingCount="0" stopTime="3.80" timeLoss="21.76" rerouteNo="0" devices="tripinfo_up_1" vType="Car@up_1" speedFactor="0.94" vaporized=""/>
    <tripinfo id="left_9" depart="8.00" departLane="8to7_0" departPos="5.10" departSpeed="11.90" departDelay="0.00" arrival="145.80" arrivalLane="outl_0" arrivalPos="492.80" arrivalSpeed="11.90" duration="137.80" routeLength="1494.90" waitingTime="0.00" waitingCount="0" stopTime="0.20" timeLoss="11.92" rerouteNo="0" devices="tripinfo_left_9" vType="Car@left_9" speedFactor="0.86" vaporized=""/>
    <tripinfo id="up_5" depart="3.00" departLane="12to7_0" departPos="5.10" departSpeed="11.54" departDelay="0.00" arrival="146.60" arrivalLane="outn_0" arrivalPos="496.00" arrivalSpeed="11.54" duration="143.60" routeLength="1494.90" waitingTime="0.00" waitingCount="0" stopTime="0.00" timeLoss="13.93" rerouteNo="0" devices="tripinfo_up_5" vType="Car@up_5" speedFactor="0.83" vaporized=""/>
    <tripinfo id="right_14" depart="13.60" departLane="1to2_0" departPos="5.10" departSpeed="13.77" departDelay="0.60" arrival="146.60" arrivalLane="outr_0" arrivalPos="492.80" arrivalSpeed="13.76" duration="133.00" routeLength="1494.90" waitingTime="0.00" waitingCount="0" stopTime="0.20" timeLoss="24.05" rerouteNo="0" devices="tripinfo_right_14" vType="Car@right_14" speedFactor="0.99" vaporized=""/>
    <tripinfo id="left_17" depart="17.00" departLane="8to7_0" departPos="5.10" departSpeed="13.08" departDelay="0.00" arrival="146.60" arrivalLane="outl_0" arrivalPos="492.80" arrivalSpeed="12.09" duration="129.60" routeLength="1494.90" waitingTime="0.00" waitingCount="0" stopTime="0.00" timeLoss="15.18" rerouteNo="0" devices="tripinfo_left_17" vType="Car@left_17" speedFactor="0.94" vaporized=""/>
    <tripinfo id="left_19" depart="19.80" departLane="8to7_0" departPos="5.10" departSpeed="16.09" departDelay="1.80" arrival="147.20" arrivalLane="outl_0" arrivalPos="492.80" arrivalSpeed="12.24" duration="127.40" routeLength="1494.90" waitingTime="1.60" waitingCount="1" stopTime="0.00" timeLoss="34.45" rerouteNo="0" devices="tripinfo_left_19" vType="Car@left_19" speedFactor="1.16" vaporized=""/>
    <tripinfo id="right_15" depart="16.00" departLane="1to2_0" departPos="5.10" departSpeed="12.87" departDelay="0.00" arrival="150.20" arrivalLane="outr_0" arrivalPos="492.80" arrivalSpeed="12.87" duration="134.20" routeLength="1494.90" waitingTime="0.00" waitingCount="0" stopTime="0.00" timeLoss="18.08" rerouteNo="0" devices="tripinfo_right_15" vType="Car@right_15" speedFactor="0.93" vaporized=""/>
    <tripinfo id="left_45" depart="52.00" departLane="8to7_0" departPos="5.10" departSpeed="15.11" departDelay="0.00" arrival="151.40" arrivalLane="outl_0" arrivalPos="492.80" arrivalSpeed="15.04" duration="99.40" routeLength="1494.90" waitingTime="0.00" waitingCount="0" stopTime="0.00" timeLoss="0.31" rerouteNo="0" devices="tripinfo_left_45" vType="Car@left_45" speedFactor="1.09" vaporized=""/>
    <tripinfo id="right_18" depart="18.00" departLane="1to2_0" departPos="5.10" departSpeed="13.00" departDelay="0.00" arrival="151.60" arrivalLane="outr_0" arrivalPos="492.80" arrivalSpeed="12.92" duration="133.60" routeLength="1494.90" waitingTime="1.60" waitingCount="1" stopTime="0.00" timeLoss="18.65" rerouteNo="0" devices="tripinfo_right_18" vType="Car@right_18" speedFactor="0.94" vaporized=""/>
    <tripinfo id="left_51" depart="59.00" departLane="8to7_0" departPos="5.10" departSpeed="16.24" departDelay="0.00" arrival="152.20" arrivalLane="outl_0" arrivalPos="492.80" arrivalSpeed="15.51" duration="93.20" routeLength="1494.90" waitingTime="0.00" waitingCount="0" stopTime="0.00" timeLoss="1.03" rerouteNo="0" devices="tripinfo_left_51" vType="Car@left_51" speedFactor="1.17" vaporized=""/>
    <tripinfo id="right_20" depart="20.20" departLane="1to2_0" departPos="5.10" departSpeed="14.14" departDelay="0.20" arrival="152.40" arrivalLane="outr_0" arrivalPos="492.80" arrivalSpeed="13.09" duration="132.20" routeLength="1494.90" waitingTime="3.40" waitingCount="1" stopTime="0.00" timeLoss="26.43" rerouteNo="0" devices="tripinfo_right_20" vType="Car@right_20" speedFactor="1.02" vaporized=""/>
    <tripinfo id="right_26" depart="27.00" departLane="1to2_0" departPos="5.10" departSpeed="12.74" departDelay="0.00" arrival="154.20" arrivalLane="outr_0" arrivalPos="492.80" arrivalSpeed="12.70" duration="127.20" routeLength="1494.90" waitingTime="0.00" waitingCount="0" stopTime="0.00" timeLoss="9.85" rerouteNo="0" devices="tripinfo_right_26" vType="Car@right_26" speedFactor="0.92" vaporized=""/>
    <tripinfo id="right_30" depart="32.00" departLane="1to2_0" departPos="5.10" departSpeed="16.37" departDelay="0.00" arrival="155.00" arrivalLane="outr_0" arrivalPos="492.80" arrivalSpeed="13.08" duration="123.00" routeLength="1494.90" waitingTime="0.00" waitingCount="0" stopTime="0.00" timeLoss="31.54" rerouteNo="0" devices="tripinfo_right_30" vType="Car@right_30" speedFactor="1.18" vaporized=""/>
    <tripinfo id="right_33" depart="34.00" departLane="1to2_0" departPos="5.10" departSpeed="16.28" departDelay="0.00" arrival="155.60" arrivalLane="outr_0" arrivalPos="492.80" arrivalSpeed="12.99" duration="121.60" routeLength="1494.90" waitingTime="0.00" waitingCount="0" stopTime="0.00" timeLoss="29.65" rerouteNo="0" devices="tripinfo_right_33" vType="Car@right_33" speedFactor="1.17" vaporized=""/>
    <tripinfo id="right_35" depart="37.00" departLane="1to2_0" departPos="5.10" departSpeed="14.16" departDelay="0.00" arrival="156.20" arrivalLane="outr_0" arrivalPos="492.80" arrivalSpeed="12.87" duration="119.20" routeLength="1494.90" waitingTime="0.00" waitingCount="0" stopTime="0.00" timeLoss="13.65" rerouteNo="0" devices="tripinfo_right_35" vType="Car@right_35" speedFactor="1.02" vaporized=""/>
    <tripinfo id="right_36" depart="38.40" departLane="1to2_0" departPos="5.10" departSpeed="13.52" departDelay="0.40" arrival="157.20" arrivalLane="outr_0" arrivalPos="492.80" arrivalSpeed="12.98" duration="118.80" routeLength="1494.90" waitingTime="0.00" waitingCount="0" stopTime="0.00" timeLoss="8.11" rerouteNo="0" devices="tripinfo_right_36" vType="Car@right_36" speedFactor="0.97" vaporized=""/>
    <tripinfo id="right_37" depart="41.20" departLane="1to2_0" departPos="5.10" departSpeed="16.39" departDelay="1.20" arrival="157.80" arrivalLane="outr_0" arrivalPos="492.80" arrivalSpeed="13.14" duration="116.60" routeLength="1494.90" waitingTime="0.00" waitingCount="0" stopTime="0.00" timeLoss="25.31" rerouteNo="0" devices="tripinfo_right_37" vType="Car@right_37" speedFactor="1.18" vaporized=""/>
    <tripinfo id="up_24" depart="25.00" departLane="12to7_0" departPos="5.10" departSpeed="11.47" departDelay="0.00" arrival="168.60" arrivalLane="outn_0" arrivalPos="496.00" arrivalSpeed="11.47" duration="143.60" routeLength="1494.90" waitingTime="0.00" waitingCount="0" stopTime="2.80" timeLoss="10.32" rerouteNo="0" devices="tripinfo_up_24" vType="Car@up_24" speedFactor="0.83" vaporized=""/>
    <tripinfo id="up_25" depart="27.00" departLane="12to7_0" departPos="5.10" departSpeed="12.12" departDelay="1.00" arrival="170.00" arrivalLane="outn_0" arrivalPos="496.00" arrivalSpeed="11.92" duration="143.00" routeLength="1494.90" waitingTime="3.80" waitingCount="1" stopTime="0.00" timeLoss="19.49" rerouteNo="0" devices="tripinfo_up_25" vType="Car@up_25" speedFactor="0.87" vaporized=""/>
    <tripinfo id="down_8" depart="8.00" departLane="9to2_0" departPos="5.10" departSpeed="13.03" departDelay="0.00" arrival="173.40" arrivalLane="outs_0" arrivalPos="496.00" arrivalSpeed="13.03" duration="165.40" routeLength="1494.90" waitingTime="0.00" waitingCount="0" stopTime="28.40" timeLoss="22.12" rerouteNo="0" devices="tripinfo_down_8" vType="Car@down_8" speedFactor="0.94" vaporized=""/>
    <tripinfo id="down_13" depart="11.00" departLane="9to2_0" departPos="5.10" departSpeed="15.60" departDelay="0.00" arrival="174.00" arrivalLane="outs_0" arrivalPos="496.00" arrivalSpeed="13.32" duration="163.00" routeLength="1494.90" waitingTime="31.60" waitingCount="2" stopTime="0.00" timeLoss="67.10" rerouteNo="0" devices="tripinfo_down_13" vType="Car@down_13" speedFactor="1.12" vaporized=""/>
    <tripinfo id="up_47" depart="55.00" departLane="12to7_0" departPos="5.10" departSpeed="12.51" departDelay="0.00" arrival="175.00" arrivalLane="outn_0" arrivalPos="496.00" arrivalSpeed="12.50" duration="120.00" routeLength="1494.90" waitingTime="0.00" waitingCount="0" stopTime="0.00" timeLoss="0.32" rerouteNo="0" devices="tripinfo_up_47" vType="Car@up_47" speedFactor="0.90" vaporized=""/>
    <tripinfo id="up_61" depart="78.00" departLane="12to7_0" departPos="5.10" departSpeed="15.55" departDelay="0.00" arrival="175.80" arrivalLane="outn_0" arrivalPos="496.00" arrivalSpeed="13.57" duration="97.80" routeLength="1494.90" waitingTime="0.00" waitingCount="0" stopTime="0.00" timeLoss="1.55" rerouteNo="0" devices="tripinfo_up_61" vType="Car@up_61" speedFactor="1.12" vaporized=""/>
    <tripinfo id="down_16" depart="17.00" departLane="9to2_0" departPos="5.10" departSpeed="12.20" departDelay="0.00" arrival="181.00" arrivalLane="outs_0" arrivalPos="496.00" arrivalSpeed="12.20" duration="164.00" routeLength="1494.90" waitingTime="21.80" waitingCount="1" stopTime="0.00" timeLoss="41.47" rerouteNo="0" devices="tripinfo_down_16" vType="Car@down_16" speedFactor="0.88" vaporized=""/>
    <tripinfo id="down_21" depart="21.00" departLane="9to2_0" departPos="5.10" departSpeed="14.03" departDelay="0.00" arrival="181.80" arrivalLane="outs_0" arrivalPos="496.00" arrivalSpeed="12.48" duration="160.80" routeLength="1494.90" waitingTime="23.40" waitingCount="1" stopTime="0.00" timeLoss="54.17" rerouteNo="0" devices="tripinfo_down_21" vType="Car@down_21" speedFactor="1.01" vaporized=""/>
    <tripinfo id="down_22" depart="24.00" departLane="9to2_0" departPos="5.10" departSpeed="13.54" departDelay="0.00" arrival="182.80" arrivalLane="outs_0" arrivalPos="496.00" arrivalSpeed="12.79" duration="158.80" routeLength="1494.90" waitingTime="24.20" waitingCount="1" stopTime="0.00" timeLoss="48.25" rerouteNo="0" devices="tripinfo_down_22" vType="Car@down_22" speedFactor="0.98" vaporized=""/>
    <tripinfo id="down_23" depart="25.20" departLane="9to2_0" departPos="5.10" departSpeed="12.36" departDelay="0.20" arrival="186.40" arrivalLane="outs_0" arrivalPos="496.00" arrivalSpeed="12.35" duration="161.20" routeLength="1494.90" waitingTime="22.20" waitingCount="1" stopTime="0.00" timeLoss="40.23" rerouteNo="0" devices="tripinfo_down_23" vType="Car@down_23" speedFactor="0.89" vaporized=""/>
    <tripinfo id="down_27" depart="27.20" departLane="9to2_0" departPos="5.10" departSpeed="13.18" departDelay="0.20" arrival="187.40" arrivalLane="outs_0" arrivalPos="496.00" arrivalSpeed="12.53" duration="160.20" routeLength="1494.90" waitingTime="23.60" waitingCount="1" stopTime="0.00" timeLoss="46.62" rerouteNo="0" devices="tripinfo_down_27" vType="Car@down_27" speedFactor="0.95" vaporized=""/>
    <tripinfo id="down_28" depart="30.00" departLane="9to2_0" departPos="5.10" departSpeed="15.72" departDelay="1.00" arrival="188.00" arrivalLane="outs_0" arrivalPos="496.00" arrivalSpeed="12.66" duration="158.00" routeLength="1494.90" waitingTime="24.60" waitingCount="1" stopTime="0.00" timeLoss="62.83" rerouteNo="0" devices="tripinfo_down_28" vType="Car@down_28" speedFactor="1.13" vaporized=""/>
    <tripinfo id="down_29" depart="31.00" departLane="9to2_0" departPos="5.10" departSpeed="12.94" departDelay="0.00" arrival="189.00" arrivalLane="outs_0" arrivalPos="496.00" arrivalSpeed="12.60" duration="158.00" routeLength="1494.90" waitingTime="25.00" waitingCount="1" stopTime="0.00" timeLoss="42.36" rerouteNo="0" devices="tripinfo_down_29" vType="Car@down_29" speedFactor="0.93" vaporized=""/>
    <tripinfo id="down_31" depart="34.00" departLane="9to2_0" departPos="5.10" departSpeed="16.04" departDelay="2.00" arrival="189.60" arrivalLane="outs_0" arrivalPos="496.00" arrivalSpeed="12.80" duration="155.60" routeLength="1494.90" waitingTime="26.60" waitingCount="1" stopTime="0.00" timeLoss="62.35" rerouteNo="0" devices="tripinfo_down_31" vType="Car@down_31" speedFactor="1.15" vaporized=""/>
    <tripinfo id="down_32" depart="35.00" departLane="9to2_0" departPos="5.10" departSpeed="13.96" departDelay="2.00" arrival="190.40" arrivalLane="outs_0" arrivalPos="496.00" arrivalSpeed="12.73" duration="155.40" routeLength="1494.90" waitingTime="28.80" waitingCount="1" stopTime="0.00" timeLoss="48.24" rerouteNo="0" devices="tripinfo_down_32" vType="Car@down_32" speedFactor="1.01" vaporized=""/>
    <tripinfo id="down_34" depart="36.60" departLane="9to2_0" departPos="5.10" departSpeed="13.82" departDelay="1.60" arrival="191.20" arrivalLane="outs_0" arrivalPos="496.00" arrivalSpeed="12.74" duration="154.60" routeLength="1494.90" waitingTime="29.60" waitingCount="1" stopTime="0.00" timeLoss="46.29" rerouteNo="0" devices="tripinfo_down_34" vType="Car@down_34" speedFactor="0.99" vaporized=""/>
    <tripinfo id="left_63" depart="82.00" departLane="8to7_0" departPos="5.10" departSpeed="13.71" departDelay="0.00" arrival="191.40" arrivalLane="outl_0" arrivalPos="492.80" arrivalSpeed="13.71" duration="109.40" routeLength="1494.90" waitingTime="0.00" waitingCount="0" stopTime="0.00" timeLoss="0.16" rerouteNo="0" devices="tripinfo_left_63" vType="Car@left_63" speedFactor="0.99" vaporized=""/>
    <tripinfo id="down_38" depart="41.00" departLane="9to2_0" departPos="5.10" departSpeed="15.31" departDelay="0.00" arrival="191.80" arrivalLane="outs_0" arrivalPos="496.00" arrivalSpeed="12.80" duration="150.80" routeLength="1494.90" waitingTime="30.60" waitingCount="1" stopTime="0.00" timeLoss="53.11" rerouteNo="0" devices="tripinfo_down_38" vType="Car@down_38" speedFactor="1.10" vaporized=""/>
    <tripinfo id="left_68" depart="87.00" departLane="8to7_0" departPos="5.10" departSpeed="14.44" departDelay="0.00" arrival="192.20" arrivalLane="outl_0" arrivalPos="492.80" arrivalSpeed="13.88" duration="105.20" routeLength="1494.90" waitingTime="0.00" waitingCount="0" stopTime="0.00" timeLoss="1.56" rerouteNo="0" devices="tripinfo_left_68" vType="Car@left_68" speedFactor="1.04" vaporized=""/>
    <tripinfo id="left_72" depart="90.00" departLane="8to7_0" departPos="5.10" departSpeed="13.06" departDelay="0.00" arrival="205.00" arrivalLane="outl_0" arrivalPos="492.80" arrivalSpeed="13.06" duration="115.00" routeLength="1494.90" waitingTime="0.00" waitingCount="0" stopTime="0.00" timeLoss="0.51" rerouteNo="0" devices="tripinfo_left_72" vType="Car@left_72" speedFactor="0.94" vaporized=""/>
    <tripinfo id="down_41" depart="47.00" departLane="9to2_0" departPos="5.10" departSpeed="13.29" departDelay="0.00" arrival="205.40" arrivalLane="outs_0" arrivalPos="496.00" arrivalSpeed="13.29" duration="158.40" routeLength="1494.90" waitingTime="22.60" waitingCount="1" stopTime="0.20" timeLoss="45.74" rerouteNo="0" devices="tripinfo_down_41" vType="Car@down_41" speedFactor="0.96" vaporized=""/>
    <tripinfo id="right_39" depart="42.00" departLane="1to2_0" departPos="5.10" departSpeed="12.51" departDelay="0.00" arrival="207.40" arrivalLane="outr_0" arrivalPos="492.80" arrivalSpeed="12.51" duration="165.40" routeLength="1494.90" waitingTime="0.00" waitingCount="0" stopTime="35.20" timeLoss="10.59" rerouteNo="0" devices="tripinfo_right_39" vType="Car@right_39" speedFactor="0.90" vaporized=""/>
    <tripinfo id="right_40" depart="46.00" departLane="1to2_0" departPos="5.10" departSpeed="14.31" departDelay="0.00" arrival="208.00" arrivalLane="outr_0" arrivalPos="492.80" arrivalSpeed="12.70" duration="162.00" routeLength="1494.90" waitingTime="36.80" waitingCount="1" stopTime="0.00" timeLoss="57.55" rerouteNo="0" devices="tripinfo_right_40" vType="Car@right_40" speedFactor="1.03" vaporized=""/>
    <tripinfo id="right_42" depart="48.00" departLane="1to2_0" departPos="5.10" departSpeed="15.17" departDelay="0.00" arrival="208.80" arrivalLane="outr_0" arrivalPos="492.80" arrivalSpeed="12.84" duration="160.80" routeLength="1494.90" waitingTime="38.20" waitingCount="1" stopTime="0.00" timeLoss="62.12" rerouteNo="0" devices="tripinfo_right_42" vType="Car@right_42" speedFactor="1.09" vaporized=""/>
    <tripinfo id="right_44" depart="52.00" departLane="1to2_0" departPos="5.10" departSpeed="14.49" departDelay="0.00" arrival="209.40" arrivalLane="outr_0" arrivalPos="492.80" arrivalSpeed="12.73" duration="157.40" routeLength="1494.90" waitingTime="37.80" waitingCount="1" stopTime="0.00" timeLoss="54.23" rerouteNo="0" devices="tripinfo_right_44" vType="Car@right_44" speedFactor="1.04" vaporized=""/>
    <tripinfo id="up_74" depart="96.00" departLane="12to7_0" departPos="5.10" departSpeed="13.27" departDelay="0.00" arrival="220.00" arrivalLane="outn_0" arrivalPos="496.00" arrivalSpeed="13.27" duration="124.00" routeLength="1494.90" waitingTime="0.00" waitingCount="0" stopTime="0.20" timeLoss="10.99" rerouteNo="0" devices="tripinfo_up_74" vType="Car@up_74" speedFactor="0.96" vaporized=""/>
    <tripinfo id="left_85" depart="110.00" departLane="8to7_0" departPos="5.10" departSpeed="13.56" departDelay="0.00" arrival="220.40" arrivalLane="outl_0" arrivalPos="492.80" arrivalSpeed="13.56" duration="110.40" routeLength="1494.90" waitingTime="0.00" waitingCount="0" stopTime="0.00" timeLoss="0.03" rerouteNo="0" devices="tripinfo_left_85" vType="Car@left_85" speedFactor="0.98" vaporized=""/>
    <tripinfo id="left_88" depart="113.00" departLane="8to7_0" departPos="5.10" departSpeed="13.99" departDelay="0.00" arrival="221.40" arrivalLane="outl_0" arrivalPos="492.80" arrivalSpeed="13.68" duration="108.40" routeLength="1494.90" waitingTime="0.00" waitingCount="0" stopTime="0.00" timeLoss="1.40" rerouteNo="0" devices="tripinfo_left_88" vType="Car@left_88" speedFactor="1.01" vaporized=""/>
    <tripinfo id="up_75" depart="98.00" departLane="12to7_0" departPos="5.10" departSpeed="13.68" departDelay="0.00" arrival="222.00" arrivalLane="outn_0" arrivalPos="496.00" arrivalSpeed="13.63" duration="124.00" routeLength="1494.90" waitingTime="1.20" waitingCount="1" stopTime="0.00" timeLoss="14.63" rerouteNo="0" devices="tripinfo_up_75" vType="Car@up_75" speedFactor="0.98" vaporized=""/>
    <tripinfo id="up_79" depart="103.00" departLane="12to7_0" departPos="5.10" departSpeed="15.10" departDelay="0.00" arrival="222.80" arrivalLane="outn_0" arrivalPos="496.00" arrivalSpeed="13.98" duration="119.80" routeLength="1494.90" waitingTime="0.60" waitingCount="1" stopTime="0.00" timeLoss="20.65" rerouteNo="0" devices="tripinfo_up_79" vType="Car@up_79" speedFactor="1.09" vaporized=""/>
    <tripinfo id="up_82" depart="105.00" departLane="12to7_0" departPos="5.10" departSpeed="14.12" departDelay="0.00" arrival="225.40" arrivalLane="outn_0" arrivalPos="496.00" arrivalSpeed="14.10" duration="120.40" routeLength="1494.90" waitingTime="1.60" waitingCount="1" stopTime="0.00" timeLoss="14.49" rerouteNo="0" devices="tripinfo_up_82" vType="Car@up_82" speedFactor="1.02" vaporized=""/>
    <tripinfo id="left_95" depart="125.00" departLane="8to7_0" departPos="5.10" departSpeed="14.68" departDelay="0.00" arrival="227.00" arrivalLane="outl_0" arrivalPos="492.80" arrivalSpeed="14.67" duration="102.00" routeLength="1494.90" waitingTime="0.00" waitingCount="0" stopTime="0.00" timeLoss="0.08" rerouteNo="0" devices="tripinfo_left_95" vType="Car@left_95" speedFactor="1.06" vaporized=""/>
    <tripinfo id="right_48" depart="57.00" departLane="1to2_0" departPos="5.10" departSpeed="12.18" departDelay="0.00" arrival="235.80" arrivalLane="outr_0" arrivalPos="492.80" arrivalSpeed="12.18" duration="178.80" routeLength="1494.90" waitingTime="29.20" waitingCount="1" stopTime="4.80" timeLoss="51.21" rerouteNo="0" devices="tripinfo_right_48" vType="Car@right_48" speedFactor="0.88" vaporized=""/>
    <tripinfo id="down_43" depart="50.00" departLane="9to2_0" departPos="5.10" departSpeed="14.41" departDelay="0.00" arrival="238.40" arrivalLane="outs_0" arrivalPos="496.00" arrivalSpeed="14.41" duration="188.40" routeLength="1494.90" waitingTime="24.20" waitingCount="1" stopTime="36.80" timeLoss="47.77" rerouteNo="0" devices="tripinfo_down_43" vType="Car@down_43" speedFactor="1.04" vaporized=""/>
    <tripinfo id="right_49" depart="58.60" departLane="1to2_0" departPos="5.10" departSpeed="11.81" departDelay="0.60" arrival="240.00" arrivalLane="outr_0" arrivalPos="492.80" arrivalSpeed="11.81" duration="181.40" routeLength="1494.90" waitingTime="33.80" waitingCount="2" stopTime="0.00" timeLoss="54.72" rerouteNo="0" devices="tripinfo_right_49" vType="Car@right_49" speedFactor="0.85" vaporized=""/>
    <tripinfo id="right_53" depart="63.00" departLane="1to2_0" departPos="5.10" departSpeed="15.22" departDelay="0.00" arrival="240.60" arrivalLane="outr_0" arrivalPos="492.80" arrivalSpeed="12.11" duration="177.60" routeLength="1494.90" waitingTime="37.00" waitingCount="2" stopTime="0.00" timeLoss="79.36" rerouteNo="0" devices="tripinfo_right_53" vType="Car@right_53" speedFactor="1.10" vaporized=""/>
    <tripinfo id="right_57" depart="71.00" departLane="1to2_0" departPos="5.10" departSpeed="15.87" departDelay="0.00" arrival="241.40" arrivalLane="outr_0" arrivalPos="492.80" arrivalSpeed="12.25" duration="170.40" routeLength="1494.90" waitingTime="38.80" waitingCount="2" stopTime="0.00" timeLoss="76.08" rerouteNo="0" devices="tripinfo_right_57" vType="Car@right_57" speedFactor="1.14" vaporized=""/>
    <tripinfo id="right_59" depart="74.00" departLane="1to2_0" departPos="5.10" departSpeed="13.47" departDelay="0.00" arrival="243.20" arrivalLane="outr_0" arrivalPos="492.80" arrivalSpeed="13.28" duration="169.20" routeLength="1494.90" waitingTime="33.80" waitingCount="2" stopTime="0.00" timeLoss="58.20" rerouteNo="0" devices="tripinfo_right_59" vType="Car@right_59" speedFactor="0.97" vaporized=""/>
    <tripinfo id="down_46" depart="54.00" departLane="9to2_0" departPos="5.10" departSpeed="13.85" departDelay="0.00" arrival="243.80" arrivalLane="outs_0" arrivalPos="496.00" arrivalSpeed="13.85" duration="189.80" routeLength="1494.90" waitingTime="59.00" waitingCount="2" stopTime="0.00" timeLoss="81.87" rerouteNo="0" devices="tripinfo_down_46" vType="Car@down_46" speedFactor="1.00" vaporized=""/>
    <tripinfo id="right_60" depart="77.00" departLane="1to2_0" departPos="5.10" departSpeed="15.04" departDelay="0.00" arrival="244.00" arrivalLane="outr_0" arrivalPos="492.80" arrivalSpeed="13.59" duration="167.00" routeLength="1494.90" waitingTime="37.40" waitingCount="2" stopTime="0.00" timeLoss="67.50" rerouteNo="0" devices="tripinfo_right_60" vType="Car@right_60" speedFactor="1.08" vaporized=""/>
    <tripinfo id="right_62" depart="81.00" departLane="1to2_0" departPos="5.10" departSpeed="14.11" departDelay="0.00" arrival="246.80" arrivalLane="outr_0" arrivalPos="492.80" arrivalSpeed="14.08" duration="165.80" routeLength="1494.90" waitingTime="34.60" waitingCount="2" stopTime="0.00" timeLoss="59.68" rerouteNo="0" devices="tripinfo_right_62" vType="Car@right_62" speedFactor="1.02" vaporized=""/>
    <tripinfo id="right_65" depart="85.00" departLane="1to2_0" departPos="5.10" departSpeed="12.26" departDelay="0.00" arrival="254.00" arrivalLane="outr_0" arrivalPos="492.80" arrivalSpeed="12.25" duration="169.00" routeLength="1494.90" waitingTime="24.40" waitingCount="2" stopTime="0.00" timeLoss="46.86" rerouteNo="0" devices="tripinfo_right_65" vType="Car@right_65" speedFactor="0.88" vaporized=""/>
    <tripinfo id="right_66" depart="87.00" departLane="1to2_0" departPos="5.10" departSpeed="12.60" departDelay="0.00" arrival="255.80" arrivalLane="outr_0" arrivalPos="492.80" arrivalSpeed="12.54" duration="168.80" routeLength="1494.90" waitingTime="28.20" waitingCount="2" stopTime="0.00" timeLoss="50.10" rerouteNo="0" devices="tripinfo_right_66" vType="Car@right_66" speedFactor="0.91" vaporized=""/>
    <tripinfo id="left_97" depart="127.00" departLane="8to7_0" departPos="5.10" departSpeed="12.59" departDelay="0.00" arrival="256.60" arrivalLane="outl_0" arrivalPos="492.80" arrivalSpeed="12.59" duration="129.60" routeLength="1494.90" waitingTime="0.00" waitingCount="0" stopTime="0.20" timeLoss="10.54" rerouteNo="0" devices="tripinfo_left_97" vType="Car@left_97" speedFactor="0.91" vaporized=""/>
    <tripinfo id="down_50" depart="59.00" departLane="9to2_0" departPos="5.10" departSpeed="11.87" departDelay="0.00" arrival="258.00" arrivalLane="outs_0" arrivalPos="496.00" arrivalSpeed="11.87" duration="199.00" routeLength="1494.90" waitingTime="51.60" waitingCount="2" stopTime="0.00" timeLoss="73.07" rerouteNo="0" devices="tripinfo_down_50" vType="Car@down_50" speedFactor="0.85" vaporized=""/>
    <tripinfo id="down_52" depart="61.60" departLane="9to2_0" departPos="5.10" departSpeed="14.12" departDelay="0.60" arrival="258.80" arrivalLane="outs_0" arrivalPos="496.00" arrivalSpeed="12.18" duration="197.20" routeLength="1494.90" waitingTime="53.60" waitingCount="2" stopTime="0.00" timeLoss="91.23" rerouteNo="0" devices="tripinfo_down_52" vType="Car@down_52" speedFactor="1.02" vaporized=""/>