<?xml version="1.0" encoding="UTF-8"?>

<!-- generated on Mon Dec 27 17:15:46 2021 by Eclipse SUMO GUI Version 1.6.0
<configuration xmlns:xsi="http://www.w3.org/2001/XMLSchema-instance" xsi:noNamespaceSchemaLocation="http://sumo.dlr.de/xsd/sumoConfiguration.xsd">

    <input>
        <net-file value="data/ciudad2x2_semaforo.net.xml"/>
        <route-files value="data/ciudad2x2_semaforo.rou.xml"/>
    </input>

    <output>
        <tripinfo-output value="data/out-tripinfo.xml"/>
    </output>

    <time>
        <begin value="0"/>
        <step-length value="0.2"/>
    </time>

    <processing>
        <collision.mingap-factor value="0"/>
    </processing>

    <report>
        <verbose value="true"/>
        <no-step-log value="true"/>
    </report>

    <traci_server>
        <remote-port value="62569"/>
    </traci_server>

    <gui_only>
        <tracker-interval value="0.2"/>
    </gui_only>

</configuration>
-->

<tripinfos xmlns:xsi="http://www.w3.org/2001/XMLSchema-instance" xsi:noNamespaceSchemaLocation="http://sumo.dlr.de/xsd/tripinfo_file.xsd">
    <tripinfo id="left_10" depart="8.00" departLane="8to7_0" departPos="5.10" departSpeed="16.67" departDelay="0.00" arrival="98.00" arrivalLane="outl_0" arrivalPos="492.80" arrivalSpeed="16.67" duration="90.00" routeLength="1494.90" waitingTime="0.00" waitingCount="0" stopTime="0.00" timeLoss="0.14" rerouteNo="0" devices="tripinfo_left_10" vType="Car@left_10" speedFactor="1.09" vaporized=""/>
    <tripinfo id="left_14" depart="11.00" departLane="8to7_0" departPos="5.10" departSpeed="16.67" departDelay="0.00" arrival="101.00" arrivalLane="outl_0" arrivalPos="492.80" arrivalSpeed="16.66" duration="90.00" routeLength="1494.90" waitingTime="0.00" waitingCount="0" stopTime="0.00" timeLoss="0.15" rerouteNo="0" devices="tripinfo_left_14" vType="Car@left_14" speedFactor="0.99" vaporized=""/>
    <tripinfo id="right_0" depart="0.00" departLane="1to2_0" departPos="5.10" departSpeed="16.67" departDelay="0.00" arrival="121.80" arrivalLane="outr_0" arrivalPos="492.80" arrivalSpeed="16.65" duration="121.80" routeLength="1494.90" waitingTime="13.80" waitingCount="1" stopTime="0.00" timeLoss="31.89" rerouteNo="0" devices="tripinfo_right_0" vType="Car@right_0" speedFactor="1.06" vaporized=""/>
    <tripinfo id="down_1" depart="0.00" departLane="9to2_0" departPos="5.10" departSpeed="16.67" departDelay="0.00" arrival="132.00" arrivalLane="outs_0" arrivalPos="496.00" arrivalSpeed="16.63" duration="132.00" routeLength="1494.90" waitingTime="28.60" waitingCount="1" stopTime="0.00" timeLoss="42.13" rerouteNo="0" devices="tripinfo_down_1" vType="Car@down_1" speedFactor="0.94" vaporized=""/>
    <tripinfo id="up_2" depart="1.00" departLane="12to7_0" departPos="5.10" departSpeed="16.67" departDelay="0.00" arrival="132.00" arrivalLane="outn_0" arrivalPos="496.00" arrivalSpeed="16.63" duration="131.00" routeLength="1494.90" waitingTime="14.00" waitingCount="2" stopTime="0.00" timeLoss="41.09" rerouteNo="0" devices="tripinfo_up_2" vType="Car@up_2" speedFactor="1.01" vaporized=""/>
    <tripinfo id="down_4" depart="3.00" departLane="9to2_0" departPos="5.10" departSpeed="16.67" departDelay="0.00" arrival="135.00" arrivalLane="outs_0" arrivalPos="496.00" arrivalSpeed="16.62" duration="132.00" routeLength="1494.90" waitingTime="27.40" waitingCount="1" stopTime="0.00" timeLoss="42.25" rerouteNo="0" devices="tripinfo_down_4" vType="Car@down_4" speedFactor="1.03" vaporized=""/>
    <tripinfo id="up_5" depart="3.00" departLane="12to7_0" departPos="5.10" departSpeed="16.16" departDelay="0.00" arrival="136.40" arrivalLane="outn_0" arrivalPos="496.00" arrivalSpeed="16.13" duration="133.40" routeLength="1494.90" waitingTime="11.80" waitingCount="2" stopTime="0.00" timeLoss="40.68" rerouteNo="0" devices="tripinfo_up_5" vType="Car@up_5" speedFactor="0.83" vaporized=""/>
    <tripinfo id="down_9" depart="8.00" departLane="9to2_0" departPos="5.10" departSpeed="16.66" departDelay="0.00" arrival="137.60" arrivalLane="outs_0" arrivalPos="496.00" arrivalSpeed="16.61" duration="129.60" routeLength="1494.90" waitingTime="24.60" waitingCount="1" stopTime="0.00" timeLoss="39.80" rerouteNo="0" devices="tripinfo_down_9" vType="Car@down_9" speedFactor="0.86" vaporized=""/>
    <tripinfo id="up_7" depart="5.00" departLane="12to7_0" departPos="5.10" departSpeed="16.67" departDelay="0.00" arrival="138.60" arrivalLane="outn_0" arrivalPos="496.00" arrivalSpeed="16.59" duration="133.60" routeLength="1494.90" waitingTime="14.40" waitingCount="2" stopTime="0.00" timeLoss="43.78" rerouteNo="0" devices="tripinfo_up_7" vType="Car@up_7" speedFactor="0.89" vaporized=""/>
    <tripinfo id="down_12" depart="9.60" departLane="9to2_0" departPos="5.10" departSpeed="16.67" departDelay="0.60" arrival="140.40" arrivalLane="outs_0" arrivalPos="496.00" arrivalSpeed="16.62" duration="130.80" routeLength="1494.90" waitingTime="26.40" waitingCount="1" stopTime="0.00" timeLoss="40.99" rerouteNo="0" devices="tripinfo_down_12" vType="Car@down_12" speedFactor="1.05" vaporized=""/>
    <tripinfo id="up_17" depart="14.00" departLane="12to7_0" departPos="5.10" departSpeed="16.67" departDelay="0.00" arrival="141.40" arrivalLane="outn_0" arrivalPos="496.00" arrivalSpeed="16.62" duration="127.40" routeLength="1494.90" waitingTime="7.80" waitingCount="2" stopTime="0.00" timeLoss="37.55" rerouteNo="0" devices="tripinfo_up_17" vType="Car@up_17" speedFactor="0.94" vaporized=""/>
    <tripinfo id="down_13" depart="11.20" departLane="9to2_0" departPos="5.10" departSpeed="16.67" departDelay="1.20" arrival="143.00" arrivalLane="outs_0" arrivalPos="496.00" arrivalSpeed="16.63" duration="131.80" routeLength="1494.90" waitingTime="27.40" waitingCount="1" stopTime="0.00" timeLoss="42.00" rerouteNo="0" devices="tripinfo_down_13" vType="Car@down_13" speedFactor="1.12" vaporized=""/>
    <tripinfo id="up_19" depart="18.00" departLane="12to7_0" departPos="5.10" departSpeed="16.67" departDelay="0.00" arrival="144.00" arrivalLane="outn_0" arrivalPos="496.00" arrivalSpeed="16.63" duration="126.00" routeLength="1494.90" waitingTime="6.80" waitingCount="2" stopTime="0.00" timeLoss="36.27" rerouteNo="0" devices="tripinfo_up_19" vType="Car@up_19" speedFactor="1.16" vaporized=""/>
    <tripinfo id="down_16" depart="14.00" departLane="9to2_0" departPos="5.10" departSpeed="16.67" departDelay="0.00" arrival="145.40" arrivalLane="outs_0" arrivalPos="496.00" arrivalSpeed="16.63" duration="131.40" routeLength="1494.90" waitingTime="21.40" waitingCount="1" stopTime="0.00" timeLoss="41.68" rerouteNo="0" devices="tripinfo_down_16" vType="Car@down_16" speedFactor="0.88" vaporized=""/>
    <tripinfo id="up_21" depart="21.00" departLane="12to7_0" departPos="5.10" departSpeed="16.67" departDelay="0.00" arrival="146.80" arrivalLane="outn_0" arrivalPos="496.00" arrivalSpeed="16.63" duration="125.80" routeLength="1494.90" waitingTime="6.80" waitingCount="2" stopTime="0.00" timeLoss="35.94" rerouteNo="0" devices="tripinfo_up_21" vType="Car@up_21" speedFactor="1.01" vaporized=""/>
    <tripinfo id="up_32" depart="32.00" departLane="12to7_0" departPos="5.10" departSpeed="16.67" departDelay="0.00" arrival="149.40" arrivalLane="outn_0" arrivalPos="496.00" arrivalSpeed="16.63" duration="117.40" routeLength="1494.90" waitingTime="2.60" waitingCount="1" stopTime="0.00" timeLoss="27.57" rerouteNo="0" devices="tripinfo_up_32" vType="Car@up_32" speedFactor="1.01" vaporized=""/>
    <tripinfo id="up_37" depart="37.00" departLane="12to7_0" departPos="5.10" departSpeed="16.67" departDelay="0.00" arrival="152.20" arrivalLane="outn_0" arrivalPos="496.00" arrivalSpeed="16.63" duration="115.20" routeLength="1494.90" waitingTime="4.40" waitingCount="1" stopTime="0.00" timeLoss="25.34" rerouteNo="0" devices="tripinfo_up_37" vType="Car@up_37" speedFactor="1.18" vaporized=""/>
    <tripinfo id="up_40" depart="40.00" departLane="12to7_0" departPos="5.10" departSpeed="16.67" departDelay="0.00" arrival="155.20" arrivalLane="outn_0" arrivalPos="496.00" arrivalSpeed="16.64" duration="115.20" routeLength="1494.90" waitingTime="6.80" waitingCount="1" stopTime="0.00" timeLoss="25.51" rerouteNo="0" devices="tripinfo_up_40" vType="Car@up_40" speedFactor="1.03" vaporized=""/>
    <tripinfo id="up_54" depart="58.00" departLane="12to7_0" departPos="5.10" departSpeed="16.67" departDelay="0.00" arrival="156.40" arrivalLane="outn_0" arrivalPos="496.00" arrivalSpeed="16.51" duration="98.40" routeLength="1494.90" waitingTime="0.00" waitingCount="0" stopTime="0.00" timeLoss="8.64" rerouteNo="0" devices="tripinfo_up_54" vType="Car@up_54" speedFactor="1.00" vaporized=""/>
    <tripinfo id="down_20" depart="19.00" departLane="9to2_0" departPos="5.10" departSpeed="16.67" departDelay="0.00" arrival="161.80" arrivalLane="outs_0" arrivalPos="496.00" arrivalSpeed="16.67" duration="142.80" routeLength="1494.90" waitingTime="39.60" waitingCount="1" stopTime="0.00" timeLoss="53.04" rerouteNo="0" devices="tripinfo_down_20" vType="Car@down_20" speedFactor="1.02" vaporized=""/>
    <tripinfo id="right_3" depart="3.00" departLane="1to2_0" departPos="5.10" departSpeed="16.67" departDelay="0.00" arrival="176.80" arrivalLane="outr_0" arrivalPos="492.80" arrivalSpeed="16.62" duration="173.80" routeLength="1494.90" waitingTime="55.80" waitingCount="2" stopTime="0.00" timeLoss="83.96" rerouteNo="0" devices="tripinfo_right_3" vType="Car@right_3" speedFactor="1.08" vaporized=""/>
    <tripinfo id="left_23" depart="22.00" departLane="8to7_0" departPos="5.10" departSpeed="16.67" departDelay="0.00" arrival="176.80" arrivalLane="outl_0" arrivalPos="492.80" arrivalSpeed="16.62" duration="154.80" routeLength="1494.90" waitingTime="38.00" waitingCount="2" stopTime="0.00" timeLoss="64.93" rerouteNo="0" devices="tripinfo_left_23" vType="Car@left_23" speedFactor="0.89" vaporized=""/>
    <tripinfo id="right_6" depart="5.00" departLane="1to2_0" departPos="5.10" departSpeed="16.67" departDelay="0.00" arrival="180.00" arrivalLane="outr_0" arrivalPos="492.80" arrivalSpeed="16.62" duration="175.00" routeLength="1494.90" waitingTime="55.80" waitingCount="2" stopTime="0.00" timeLoss="85.14" rerouteNo="0" devices="tripinfo_right_6" vType="Car@right_6" speedFactor="1.05" vaporized=""/>
    <tripinfo id="left_26" depart="26.00" departLane="8to7_0" departPos="5.10" departSpeed="16.67" departDelay="0.00" arrival="180.60" arrivalLane="outl_0" arrivalPos="492.80" arrivalSpeed="16.62" duration="154.60" routeLength="1494.90" waitingTime="35.00" waitingCount="2" stopTime="0.00" timeLoss="64.73" rerouteNo="0" devices="tripinfo_left_26" vType="Car@left_26" speedFactor="0.92" vaporized=""/>
    <tripinfo id="right_8" depart="8.00" departLane="1to2_0" departPos="5.10" departSpeed="16.67" departDelay="0.00" arrival="182.60" arrivalLane="outr_0" arrivalPos="492.80" arrivalSpeed="16.62" duration="174.60" routeLength="1494.90" waitingTime="55.40" waitingCount="2" stopTime="0.00" timeLoss="84.80" rerouteNo="0" devices="tripinfo_right_8" vType="Car@right_8" speedFactor="0.94" vaporized=""/>
    <tripinfo id="left_28_emergency" depart="28.00" departLane="8to7_0" departPos="5.10" departSpeed="16.67" departDelay="0.00" arrival="183.60" arrivalLane="outl_0" arrivalPos="492.80" arrivalSpeed="16.62" duration="155.60" routeLength="1494.90" waitingTime="36.60" waitingCount="2" stopTime="0.00" timeLoss="65.74" rerouteNo="0" devices="tripinfo_left_28_emergency" vType="Car@left_28_emergency" speedFactor="1.13" vaporized=""/>
    <tripinfo id="right_11" depart="9.60" departLane="1to2_0" departPos="5.10" departSpeed="16.67" departDelay="0.60" arrival="185.00" arrivalLane="outr_0" arrivalPos="492.80" arrivalSpeed="16.62" duration="175.40" routeLength="1494.90" waitingTime="56.40" waitingCount="2" stopTime="0.00" timeLoss="85.70" rerouteNo="0" devices="tripinfo_right_11" vType="Car@right_11" speedFactor="1.03" vaporized=""/>
    <tripinfo id="left_35" depart="35.00" departLane="8to7_0" departPos="5.10" departSpeed="16.67" departDelay="0.00" arrival="186.40" arrivalLane="outl_0" arrivalPos="492.80" arrivalSpeed="16.62" duration="151.40" routeLength="1494.90" waitingTime="31.60" waitingCount="2" stopTime="0.00" timeLoss="61.54" rerouteNo="0" devices="tripinfo_left_35" vType="Car@left_35" speedFactor="1.02" vaporized=""/>
    <tripinfo id="right_15" depart="12.00" departLane="1to2_0" departPos="5.10" departSpeed="16.67" departDelay="0.00" arrival="187.60" arrivalLane="outr_0" arrivalPos="492.80" arrivalSpeed="16.62" duration="175.60" routeLength="1494.90" waitingTime="56.20" waitingCount="2" stopTime="0.00" timeLoss="85.74" rerouteNo="0" devices="tripinfo_right_15" vType="Car@right_15" speedFactor="0.93" vaporized=""/>
    <tripinfo id="left_38" depart="37.00" departLane="8to7_0" departPos="5.10" departSpeed="16.67" departDelay="0.00" arrival="189.00" arrivalLane="outl_0" arrivalPos="492.80" arrivalSpeed="16.62" duration="152.00" routeLength="1494.90" waitingTime="33.00" waitingCount="2" stopTime="0.00" timeLoss="62.13" rerouteNo="0" devices="tripinfo_left_38" vType="Car@left_38" speedFactor="1.10" vaporized=""/>
    <tripinfo id="right_18_emergency" depart="18.00" departLane="1to2_0" departPos="5.10" departSpeed="16.67" departDelay="0.00" arrival="190.00" arrivalLane="outr_0" arrivalPos="492.80" arrivalSpeed="16.62" duration="172.00" routeLength="1494.90" waitingTime="52.20" waitingCount="2" stopTime="0.00" timeLoss="82.15" rerouteNo="0" devices="tripinfo_right_18_emergency" vType="Car@right_18_emergency" speedFactor="0.94" vaporized=""/>
    <tripinfo id="left_42" depart="44.00" departLane="8to7_0" departPos="5.10" departSpeed="16.67" departDelay="0.00" arrival="191.60" arrivalLane="outl_0" arrivalPos="492.80" arrivalSpeed="16.63" duration="147.60" routeLength="1494.90" waitingTime="28.40" waitingCount="2" stopTime="0.00" timeLoss="57.81" rerouteNo="0" devices="tripinfo_left_42" vType="Car@left_42" speedFactor="1.09" vaporized=""/>
    <tripinfo id="right_27" depart="27.00" departLane="1to2_0" departPos="5.10" departSpeed="16.67" departDelay="0.00" arrival="192.40" arrivalLane="outr_0" arrivalPos="492.80" arrivalSpeed="16.63" duration="165.40" routeLength="1494.90" waitingTime="46.00" waitingCount="2" stopTime="0.00" timeLoss="75.63" rerouteNo="0" devices="tripinfo_right_27" vType="Car@right_27" speedFactor="0.95" vaporized=""/>
    <tripinfo id="left_43" depart="45.60" departLane="8to7_0" departPos="5.10" departSpeed="16.67" departDelay="0.60" arrival="194.20" arrivalLane="outl_0" arrivalPos="492.80" arrivalSpeed="16.63" duration="148.60" routeLength="1494.90" waitingTime="30.00" waitingCount="2" stopTime="0.00" timeLoss="58.81" rerouteNo="0" devices="tripinfo_left_43" vType="Car@left_43" speedFactor="1.04" vaporized=""/>
    <tripinfo id="right_33" depart="33.00" departLane="1to2_0" departPos="5.10" departSpeed="16.67" departDelay="0.00" arrival="194.80" arrivalLane="outr_0" arrivalPos="492.80" arrivalSpeed="16.63" duration="161.80" routeLength="1494.90" waitingTime="42.80" waitingCount="2" stopTime="0.00" timeLoss="72.09" rerouteNo="0" devices="tripinfo_right_33" vType="Car@right_33" speedFactor="1.17" vaporized=""/>
    <tripinfo id="left_45" depart="48.00" departLane="8to7_0" departPos="5.10" departSpeed="16.67" departDelay="0.00" arrival="196.80" arrivalLane="outl_0" arrivalPos="492.80" arrivalSpeed="16.63" duration="148.80" routeLength="1494.90" waitingTime="30.20" waitingCount="2" stopTime="0.00" timeLoss="59.10" rerouteNo="0" devices="tripinfo_left_45" vType="Car@left_45" speedFactor="1.09" vaporized=""/>
    <tripinfo id="right_34" depart="35.00" departLane="1to2_0" departPos="5.10" departSpeed="16.67" departDelay="0.00" arrival="197.20" arrivalLane="outr_0" arrivalPos="492.80" arrivalSpeed="16.63" duration="162.20" routeLength="1494.90" waitingTime="43.80" waitingCount="2" stopTime="0.00" timeLoss="72.52" rerouteNo="0" devices="tripinfo_right_34" vType="Car@right_34" speedFactor="0.99" vaporized=""/>
    <tripinfo id="left_49" depart="51.00" departLane="8to7_0" departPos="5.10" departSpeed="16.53" departDelay="0.00" arrival="199.60" arrivalLane="outl_0" arrivalPos="492.80" arrivalSpeed="16.50" duration="148.60" routeLength="1494.90" waitingTime="29.20" waitingCount="2" stopTime="0.00" timeLoss="58.13" rerouteNo="0" devices="tripinfo_left_49" vType="Car@left_49" speedFactor="0.85" vaporized=""/>
    <tripinfo id="right_41" depart="44.00" departLane="1to2_0" departPos="5.10" departSpeed="16.67" departDelay="0.00" arrival="199.80" arrivalLane="outr_0" arrivalPos="492.80" arrivalSpeed="16.64" duration="155.80" routeLength="1494.90" waitingTime="42.40" waitingCount="1" stopTime="0.00" timeLoss="66.09" rerouteNo="0" devices="tripinfo_right_41" vType="Car@right_41" speedFactor="0.96" vaporized=""/>
    <tripinfo id="left_51" depart="54.00" departLane="8to7_0" departPos="5.10" departSpeed="16.67" departDelay="0.00" arrival="202.20" arrivalLane="outl_0" arrivalPos="492.80" arrivalSpeed="16.63" duration="148.20" routeLength="1494.90" waitingTime="29.60" waitingCount="2" stopTime="0.00" timeLoss="58.38" rerouteNo="0" devices="tripinfo_left_51" vType="Car@left_51" speedFactor="1.17" vaporized=""/>
    <tripinfo id="right_44" depart="46.00" departLane="1to2_0" departPos="5.10" departSpeed="16.67" departDelay="0.00" arrival="202.40" arrivalLane="outr_0" arrivalPos="492.80" arrivalSpeed="16.64" duration="156.40" routeLength="1494.90" waitingTime="43.40" waitingCount="1" stopTime="0.00" timeLoss="66.67" rerouteNo="0" devices="tripinfo_right_44" vType="Car@right_44" speedFactor="1.04" vaporized=""/>
    <tripinfo id="left_53" depart="56.00" departLane="8to7_0" departPos="5.10" departSpeed="16.67" departDelay="0.00" arrival="204.80" arrivalLane="outl_0" arrivalPos="492.80" arrivalSpeed="16.64" duration="148.80" routeLength="1494.90" waitingTime="30.60" waitingCount="2" stopTime="0.00" timeLoss="59.06" rerouteNo="0" devices="tripinfo_left_53" vType="Car@left_53" speedFactor="1.10" vaporized=""/>
    <tripinfo id="right_46" depart="50.00" departLane="1to2_0" departPos="5.10" departSpeed="16.67" departDelay="0.00" arrival="205.20" arrivalLane="outr_0" arrivalPos="492.80" arrivalSpeed="16.64" duration="155.20" routeLength="1494.90" waitingTime="45.20" waitingCount="1" stopTime="0.00" timeLoss="65.44" rerouteNo="0" devices="tripinfo_right_46" vType="Car@right_46" speedFactor="1.00" vaporized=""/>
    <tripinfo id="left_56" depart="61.00" departLane="8to7_0" departPos="5.10" departSpeed="16.67" departDelay="0.00" arrival="207.60" arrivalLane="outl_0" arrivalPos="492.80" arrivalSpeed="16.64" duration="146.60" routeLength="1494.90" waitingTime="27.60" waitingCount="2" stopTime="0.00" timeLoss="56.75" rerouteNo="0" devices="tripinfo_left_56" vType="Car@left_56" speedFactor="0.90" vaporized=""/>
    <tripinfo id="right_48" depart="51.60" departLane="1to2_0" departPos="5.10" departSpeed="16.67" departDelay="0.60" arrival="208.40" arrivalLane="outr_0" arrivalPos="492.80" arrivalSpeed="16.65" duration="156.80" routeLength="1494.90" waitingTime="47.40" waitingCount="1" stopTime="0.00" timeLoss="66.93" rerouteNo="0" devices="tripinfo_right_48" vType="Car@right_48" speedFactor="0.88" vaporized=""/>
    <tripinfo id="left_57" depart="62.60" departLane="8to7_0" departPos="5.10" departSpeed="16.67" departDelay="0.60" arrival="215.60" arrivalLane="outl_0" arrivalPos="492.80" arrivalSpeed="16.63" duration="153.00" routeLength="1494.90" waitingTime="27.80" waitingCount="1" stopTime="0.00" timeLoss="63.29" rerouteNo="0" devices="tripinfo_left_57" vType="Car@left_57" speedFactor="1.14" vaporized=""/>
    <tripinfo id="up_59" depart="67.00" departLane="12to7_0" departPos="5.10" departSpeed="16.67" departDelay="0.00" arrival="222.00" arrivalLane="outn_0" arrivalPos="496.00" arrivalSpeed="16.63" duration="155.00" routeLength="1494.90" waitingTime="38.00" waitingCount="2" stopTime="0.00" timeLoss="65.11" rerouteNo="0" devices="tripinfo_up_59" vType="Car@up_59" speedFactor="0.97" vaporized=""/>
    <tripinfo id="down_22" depart="22.00" departLane="9to2_0" departPos="5.10" departSpeed="16.67" departDelay="0.00" arrival="222.60" arrivalLane="outs_0" arrivalPos="496.00" arrivalSpeed="16.62" duration="200.60" routeLength="1494.90" waitingTime="82.60" waitingCount="2" stopTime="0.00" timeLoss="110.87" rerouteNo="0" devices="tripinfo_down_22" vType="Car@down_22" speedFactor="0.98" vaporized=""/>
    <tripinfo id="up_63" depart="75.00" departLane="12to7_0" departPos="5.10" departSpeed="16.67" departDelay="0.00" arrival="225.40" arrivalLane="outn_0" arrivalPos="496.00" arrivalSpeed="16.62" duration="150.40" routeLength="1494.90" waitingTime="30.80" waitingCount="2" stopTime="0.00" timeLoss="60.60" rerouteNo="0" devices="tripinfo_up_63" vType="Car@up_63" speedFactor="0.99" vaporized=""/>
    <tripinfo id="down_24" depart="23.40" departLane="9to2_0" departPos="5.10" departSpeed="16.05" departDelay="0.40" arrival="226.40" arrivalLane="outs_0" arrivalPos="496.00" arrivalSpeed="16.02" duration="203.00" routeLength="1494.90" waitingTime="81.40" waitingCount="2" stopTime="0.00" timeLoss="109.73" rerouteNo="0" devices="tripinfo_down_24" vType="Car@down_24" speedFactor="0.83" vaporized=""/>
    <tripinfo id="up_76" depart="89.00" departLane="12to7_0" departPos="5.10" departSpeed="16.67" departDelay="0.00" arrival="228.20" arrivalLane="outn_0" arrivalPos="496.00" arrivalSpeed="16.62" duration="139.20" routeLength="1494.90" waitingTime="19.60" waitingCount="2" stopTime="0.00" timeLoss="49.48" rerouteNo="0" devices="tripinfo_up_76" vType="Car@up_76" speedFactor="1.03" vaporized=""/>
    <tripinfo id="down_25" depart="25.20" departLane="9to2_0" departPos="5.10" departSpeed="16.67" departDelay="1.20" arrival="228.40" arrivalLane="outs_0" arrivalPos="496.00" arrivalSpeed="16.56" duration="203.20" routeLength="1494.90" waitingTime="84.40" waitingCount="2" stopTime="0.00" timeLoss="113.35" rerouteNo="0" devices="tripinfo_down_25" vType="Car@down_25" speedFactor="0.87" vaporized=""/>
    <tripinfo id="down_29" depart="30.00" departLane="9to2_0" departPos="5.10" departSpeed="16.67" departDelay="0.00" arrival="230.80" arrivalLane="outs_0" arrivalPos="496.00" arrivalSpeed="16.62" duration="200.80" routeLength="1494.90" waitingTime="81.40" waitingCount="2" stopTime="0.00" timeLoss="111.03" rerouteNo="0" devices="tripinfo_down_29" vType="Car@down_29" speedFactor="0.93" vaporized=""/>
    <tripinfo id="up_77" depart="91.00" departLane="12to7_0" departPos="5.10" departSpeed="16.67" departDelay="0.00" arrival="231.00" arrivalLane="outn_0" arrivalPos="496.00" arrivalSpeed="16.62" duration="140.00" routeLength="1494.90" waitingTime="21.20" waitingCount="2" stopTime="0.00" timeLoss="50.31" rerouteNo="0" devices="tripinfo_up_77" vType="Car@up_77" speedFactor="0.98" vaporized=""/>
    <tripinfo id="down_30" depart="31.60" departLane="9to2_0" departPos="5.10" departSpeed="16.67" departDelay="0.60" arrival="233.40" arrivalLane="outs_0" arrivalPos="496.00" arrivalSpeed="16.63" duration="201.80" routeLength="1494.90" waitingTime="83.00" waitingCount="2" stopTime="0.00" timeLoss="111.93" rerouteNo="0" devices="tripinfo_down_30" vType="Car@down_30" speedFactor="1.18" vaporized=""/>
    <tripinfo id="up_78" depart="95.00" departLane="12to7_0" departPos="5.10" departSpeed="16.67" departDelay="0.00" arrival="233.60" arrivalLane="outn_0" arrivalPos="496.00" arrivalSpeed="16.62" duration="138.60" routeLength="1494.90" waitingTime="19.20" waitingCount="2" stopTime="0.00" timeLoss="48.92" rerouteNo="0" devices="tripinfo_up_78" vType="Car@up_78" speedFactor="1.01" vaporized=""/>
    <tripinfo id="down_31" depart="33.20" departLane="9to2_0" departPos="5.10" departSpeed="16.67" departDelay="1.20" arrival="235.80" arrivalLane="outs_0" arrivalPos="496.00" arrivalSpeed="16.63" duration="202.60" routeLength="1494.90" waitingTime="84.00" waitingCount="2" stopTime="0.00" timeLoss="112.84" rerouteNo="0" devices="tripinfo_down_31" vType="Car@down_31" speedFactor="1.15" vaporized=""/>
    <tripinfo id="up_86" depart="102.00" departLane="12to7_0" departPos="5.10" departSpeed="16.67" departDelay="0.00" arrival="236.40" arrivalLane="outn_0" arrivalPos="496.00" arrivalSpeed="16.63" duration="134.40" routeLength="1494.90" waitingTime="15.00" waitingCount="2" stopTime="0.00" timeLoss="44.58" rerouteNo="0" devices="tripinfo_up_86" vType="Car@up_86" speedFactor="1.00" vaporized=""/>
    <tripinfo id="down_36" depart="36.00" departLane="9to2_0" departPos="5.10" departSpeed="16.67" departDelay="0.00" arrival="238.40" arrivalLane="outs_0" arrivalPos="496.00" arrivalSpeed="16.63" duration="202.40" routeLength="1494.90" waitingTime="83.40" waitingCount="2" stopTime="0.00" timeLoss="112.58" rerouteNo="0" devices="tripinfo_down_36" vType="Car@down_36" speedFactor="0.97" vaporized=""/>
    <tripinfo id="up_87" depart="103.60" departLane="12to7_0" departPos="5.10" departSpeed="16.67" departDelay="0.60" arrival="239.00" arrivalLane="outn_0" arrivalPos="496.00" arrivalSpeed="16.63" duration="135.40" routeLength="1494.90" waitingTime="17.00" waitingCount="2" stopTime="0.00" timeLoss="45.58" rerouteNo="0" devices="tripinfo_up_87" vType="Car@up_87" speedFactor="1.04" vaporized=""/>
    <tripinfo id="down_39" depart="38.00" departLane="9to2_0" departPos="5.10" departSpeed="16.67" departDelay="0.00" arrival="240.80" arrivalLane="outs_0" arrivalPos="496.00" arrivalSpeed="16.63" duration="202.80" routeLength="1494.90" waitingTime="84.00" waitingCount="2" stopTime="0.00" timeLoss="113.06" rerouteNo="0" devices="tripinfo_down_39" vType="Car@down_39" speedFactor="0.90" vaporized=""/>
    <tripinfo id="up_89" depart="105.20" departLane="12to7_0" departPos="5.10" departSpeed="16.67" departDelay="0.20" arrival="241.60" arrivalLane="outn_0" arrivalPos="496.00" arrivalSpeed="16.63" duration="136.40" routeLength="1494.90" waitingTime="17.80" waitingCount="2" stopTime="0.00" timeLoss="46.53" rerouteNo="0" devices="tripinfo_up_89" vType="Car@up_89" speedFactor="1.02" vaporized=""/>
    <tripinfo id="down_47" depart="50.00" departLane="9to2_0" departPos="5.10" departSpeed="16.67" departDelay="0.00" arrival="243.20" arrivalLane="outs_0" arrivalPos="496.00" arrivalSpeed="16.63" duration="193.20" routeLength="1494.90" waitingTime="73.60" waitingCount="2" stopTime="0.00" timeLoss="103.51" rerouteNo="0" devices="tripinfo_down_47" vType="Car@down_47" speedFactor="0.90" vaporized=""/>
    <tripinfo id="up_92" depart="106.60" departLane="12to7_0" departPos="5.10" departSpeed="16.21" departDelay="0.60" arrival="244.80" arrivalLane="outn_0" arrivalPos="496.00" arrivalSpeed="16.18" duration="138.20" routeLength="1494.90" waitingTime="18.00" waitingCount="2" stopTime="0.00" timeLoss="45.95" rerouteNo="0" devices="tripinfo_up_92" vType="Car@up_92" speedFactor="0.83" vaporized=""/>
    <tripinfo id="down_52" depart="56.00" departLane="9to2_0" departPos="5.10" departSpeed="16.67" departDelay="0.00" arrival="245.80" arrivalLane="outs_0" arrivalPos="496.00" arrivalSpeed="16.64" duration="189.80" routeLength="1494.90" waitingTime="70.60" waitingCount="2" stopTime="0.00" timeLoss="100.03" rerouteNo="0" devices="tripinfo_down_52" vType="Car@down_52" speedFactor="1.02" vaporized=""/>
    <tripinfo id="up_94" depart="108.40" departLane="12to7_0" departPos="5.10" departSpeed="16.67" departDelay="1.40" arrival="247.00" arrivalLane="outn_0" arrivalPos="496.00" arrivalSpeed="16.60" duration="138.60" routeLength="1494.90" waitingTime="20.60" waitingCount="2" stopTime="0.00" timeLoss="48.81" rerouteNo="0" devices="tripinfo_up_94" vType="Car@up_94" speedFactor="1.09" vaporized=""/>
    <tripinfo id="down_55" depart="60.00" departLane="9to2_0" departPos="5.10" departSpeed="16.67" departDelay="0.00" arrival="248.40" arrivalLane="outs_0" arrivalPos="496.00" arrivalSpeed="16.64" duration="188.40" routeLength="1494.90" waitingTime="69.40" waitingCount="2" stopTime="0.00" timeLoss="98.60" rerouteNo="0" devices="tripinfo_down_55" vType="Car@down_55" speedFactor="1.00" vaporized=""/>
    <tripinfo id="up_95" depart="110.00" departLane="12to7_0" departPos="5.10" departSpeed="16.67" departDelay="2.00" arrival="249.60" arrivalLane="outn_0" arrivalPos="496.00" arrivalSpeed="16.64" duration="139.60" routeLength="1494.90" waitingTime="21.00" waitingCount="2" stopTime="0.00" timeLoss="49.76" rerouteNo="0" devices="tripinfo_up_95" vType="Car@up_95" speedFactor="1.06" vaporized=""/>
    <tripinfo id="down_62" depart="71.00" departLane="9to2_0" departPos="5.10" departSpeed="16.67" departDelay="0.00" arrival="251.00" arrivalLane="outs_0" arrivalPos="496.00" arrivalSpeed="16.64" duration="180.00" routeLength="1494.90" waitingTime="57.80" waitingCount="2" stopTime="0.00" timeLoss="90.22" rerouteNo="0" devices="tripinfo_down_62" vType="Car@down_62" speedFactor="1.02" vaporized=""/>
    <tripinfo id="up_98" depart="112.00" departLane="12to7_0" departPos="5.10" departSpeed="16.67" departDelay="0.00" arrival="252.20" arrivalLane="outn_0" arrivalPos="496.00" arrivalSpeed="16.64" duration="140.20" routeLength="1494.90" waitingTime="21.80" waitingCount="2" stopTime="0.00" timeLoss="50.44" rerouteNo="0" devices="tripinfo_up_98" vType="Car@up_98" speedFactor="1.12" vaporized=""/>
    <tripinfo id="down_65" depart="77.00" departLane="9to2_0" departPos="5.10" departSpeed="16.67" departDelay="0.00" arrival="253.60" arrivalLane="outs_0" arrivalPos="496.00" arrivalSpeed="16.64" duration="176.60" routeLength="1494.90" waitingTime="52.80" waitingCount="2" stopTime="0.00" timeLoss="86.75" rerouteNo="0" devices="tripinfo_down_65" vType="Car@down_65" speedFactor="0.88" vaporized=""/>
    <tripinfo id="up_107" depart="121.00" departLane="12to7_0" departPos="5.10" departSpeed="16.67" departDelay="0.00" arrival="257.60" arrivalLane="outn_0" arrivalPos="496.00" arrivalSpeed="16.64" duration="136.60" routeLength="1494.90" waitingTime="13.20" waitingCount="1" stopTime="0.00" timeLoss="46.89" rerouteNo="0" devices="tripinfo_up_107" vType="Car@up_107" speedFactor="1.03" vaporized=""/>