<?xml version="1.0" encoding="UTF-8"?>

<!-- generated on 2021-12-27 13:20:21 by Eclipse SUMO GUI Version 1.10.0
<configuration xmlns:xsi="http://www.w3.org/2001/XMLSchema-instance" xsi:noNamespaceSchemaLocation="http://sumo.dlr.de/xsd/sumoConfiguration.xsd">

    <input>
        <net-file value="data/cross.net.xml"/>
        <route-files value="data/cross.rou.xml"/>
    </input>

    <output>
        <tripinfo-output value="data/out-tripinfo.xml"/>
    </output>

    <time>
        <begin value="0"/>
        <step-length value="0.2"/>
    </time>

    <processing>
        <collision.mingap-factor value="0"/>
    </processing>

    <report>
        <verbose value="true"/>
        <no-step-log value="true"/>
    </report>

    <traci_server>
        <remote-port value="52995"/>
    </traci_server>

    <gui_only>
        <tracker-interval value="0.2"/>
    </gui_only>

</configuration>
-->

<tripinfos xmlns:xsi="http://www.w3.org/2001/XMLSchema-instance" xsi:noNamespaceSchemaLocation="http://sumo.dlr.de/xsd/tripinfo_file.xsd">
    <tripinfo id="left_3" depart="0.00" departLane="8to7_0" departPos="5.10" departSpeed="15.04" departDelay="0.00" arrival="99.40" arrivalLane="outl_0" arrivalPos="492.80" arrivalSpeed="15.04" duration="99.40" routeLength="1494.90" waitingTime="0.00" waitingCount="0" stopTime="0.00" timeLoss="0.00" rerouteNo="0" devices="tripinfo_left_3" vType="Car@left_3" speedFactor="1.08" vaporized=""/>
    <tripinfo id="right_0" depart="0.00" departLane="1to2_0" departPos="5.10" departSpeed="14.72" departDelay="0.00" arrival="101.60" arrivalLane="outr_0" arrivalPos="492.80" arrivalSpeed="14.72" duration="101.60" routeLength="1494.90" waitingTime="0.00" waitingCount="0" stopTime="0.00" timeLoss="0.00" rerouteNo="0" devices="tripinfo_right_0" vType="Car@right_0" speedFactor="1.06" vaporized=""/>
    <tripinfo id="down_1" depart="0.00" departLane="9to2_0" departPos="5.10" departSpeed="13.03" departDelay="0.00" arrival="114.80" arrivalLane="outs_0" arrivalPos="496.00" arrivalSpeed="13.03" duration="114.80" routeLength="1494.90" waitingTime="0.00" waitingCount="0" stopTime="0.00" timeLoss="0.04" rerouteNo="0" devices="tripinfo_down_1" vType="Car@down_1" speedFactor="0.94" vaporized=""/>
    <tripinfo id="down_6" depart="2.20" departLane="9to2_0" departPos="5.10" departSpeed="14.53" departDelay="1.20" arrival="115.60" arrivalLane="outs_0" arrivalPos="496.00" arrivalSpeed="13.25" duration="113.40" routeLength="1494.90" waitingTime="0.00" waitingCount="0" stopTime="0.00" timeLoss="10.35" rerouteNo="0" devices="tripinfo_down_6" vType="Car@down_6" speedFactor="1.05" vaporized=""/>
    <tripinfo id="down_10" depart="4.00" departLane="9to2_0" departPos="5.10" departSpeed="15.15" departDelay="2.00" arrival="116.20" arrivalLane="outs_0" arrivalPos="496.00" arrivalSpeed="13.25" duration="112.20" routeLength="1494.90" waitingTime="0.00" waitingCount="0" stopTime="0.00" timeLoss="13.45" rerouteNo="0" devices="tripinfo_down_10" vType="Car@down_10" speedFactor="1.09" vaporized=""/>
    <tripinfo id="down_15" depart="5.00" departLane="9to2_0" departPos="5.10" departSpeed="12.87" departDelay="2.00" arrival="121.40" arrivalLane="outs_0" arrivalPos="496.00" arrivalSpeed="12.87" duration="116.40" routeLength="1494.90" waitingTime="0.00" waitingCount="0" stopTime="0.00" timeLoss="0.13" rerouteNo="0" devices="tripinfo_down_15" vType="Car@down_15" speedFactor="0.93" vaporized=""/>
    <tripinfo id="down_20" depart="7.20" departLane="9to2_0" departPos="5.10" departSpeed="14.14" departDelay="3.20" arrival="122.00" arrivalLane="outs_0" arrivalPos="496.00" arrivalSpeed="13.02" duration="114.80" routeLength="1494.90" waitingTime="0.00" waitingCount="0" stopTime="0.00" timeLoss="9.07" rerouteNo="0" devices="tripinfo_down_20" vType="Car@down_20" speedFactor="1.02" vaporized=""/>
    <tripinfo id="up_2" depart="0.00" departLane="12to7_0" departPos="5.10" departSpeed="14.03" departDelay="0.00" arrival="129.80" arrivalLane="outn_0" arrivalPos="496.00" arrivalSpeed="14.03" duration="129.80" routeLength="1494.90" waitingTime="0.60" waitingCount="1" stopTime="11.20" timeLoss="11.96" rerouteNo="0" devices="tripinfo_up_2" vType="Car@up_2" speedFactor="1.01" vaporized=""/>
    <tripinfo id="left_8" depart="1.00" departLane="8to7_0" departPos="5.10" departSpeed="13.03" departDelay="0.00" arrival="130.80" arrivalLane="outl_0" arrivalPos="492.80" arrivalSpeed="13.03" duration="129.80" routeLength="1494.90" waitingTime="0.40" waitingCount="1" stopTime="3.80" timeLoss="11.21" rerouteNo="0" devices="tripinfo_left_8" vType="Car@left_8" speedFactor="0.94" vaporized=""/>
    <tripinfo id="left_12" depart="3.20" departLane="8to7_0" departPos="5.10" departSpeed="14.54" departDelay="1.20" arrival="131.80" arrivalLane="outl_0" arrivalPos="492.80" arrivalSpeed="13.64" duration="128.60" routeLength="1494.90" waitingTime="5.60" waitingCount="1" stopTime="0.00" timeLoss="25.67" rerouteNo="0" devices="tripinfo_left_12" vType="Car@left_12" speedFactor="1.05" vaporized=""/>
    <tripinfo id="left_17" depart="4.40" departLane="8to7_0" departPos="5.10" departSpeed="13.08" departDelay="1.40" arrival="136.60" arrivalLane="outl_0" arrivalPos="492.80" arrivalSpeed="13.07" duration="132.20" routeLength="1494.90" waitingTime="6.40" waitingCount="1" stopTime="0.00" timeLoss="17.75" rerouteNo="0" devices="tripinfo_left_17" vType="Car@left_17" speedFactor="0.94" vaporized=""/>
    <tripinfo id="left_22" depart="6.20" departLane="8to7_0" departPos="5.10" departSpeed="13.54" departDelay="2.20" arrival="138.40" arrivalLane="outl_0" arrivalPos="492.80" arrivalSpeed="13.47" duration="132.20" routeLength="1494.90" waitingTime="8.40" waitingCount="1" stopTime="0.00" timeLoss="21.69" rerouteNo="0" devices="tripinfo_left_22" vType="Car@left_22" speedFactor="0.98" vaporized=""/>
    <tripinfo id="left_27" depart="7.80" departLane="8to7_0" departPos="5.10" departSpeed="13.18" departDelay="2.80" arrival="141.80" arrivalLane="outl_0" arrivalPos="492.80" arrivalSpeed="13.17" duration="134.00" routeLength="1494.90" waitingTime="9.00" waitingCount="1" stopTime="0.00" timeLoss="20.46" rerouteNo="0" devices="tripinfo_left_27" vType="Car@left_27" speedFactor="0.95" vaporized=""/>
    <tripinfo id="left_32" depart="9.80" departLane="8to7_0" departPos="5.10" departSpeed="13.96" departDelay="3.80" arrival="143.00" arrivalLane="outl_0" arrivalPos="492.80" arrivalSpeed="13.65" duration="133.20" routeLength="1494.90" waitingTime="10.60" waitingCount="1" stopTime="0.00" timeLoss="25.96" rerouteNo="0" devices="tripinfo_left_32" vType="Car@left_32" speedFactor="1.01" vaporized=""/>
    <tripinfo id="left_36" depart="11.40" departLane="8to7_0" departPos="5.10" departSpeed="13.52" departDelay="4.40" arrival="146.20" arrivalLane="outl_0" arrivalPos="492.80" arrivalSpeed="13.51" duration="134.80" routeLength="1494.90" waitingTime="12.40" waitingCount="1" stopTime="0.00" timeLoss="24.12" rerouteNo="0" devices="tripinfo_left_36" vType="Car@left_36" speedFactor="0.97" vaporized=""/>
    <tripinfo id="left_40" depart="13.40" departLane="8to7_0" departPos="5.10" departSpeed="14.31" departDelay="5.40" arrival="148.20" arrivalLane="outl_0" arrivalPos="492.80" arrivalSpeed="14.23" duration="134.80" routeLength="1494.90" waitingTime="3.60" waitingCount="1" stopTime="0.00" timeLoss="30.31" rerouteNo="0" devices="tripinfo_left_40" vType="Car@left_40" speedFactor="1.03" vaporized=""/>
    <tripinfo id="right_5" depart="1.00" departLane="1to2_0" departPos="5.10" departSpeed="11.54" departDelay="0.00" arrival="150.20" arrivalLane="outr_0" arrivalPos="492.80" arrivalSpeed="11.54" duration="149.20" routeLength="1494.90" waitingTime="0.40" waitingCount="2" stopTime="0.40" timeLoss="19.17" rerouteNo="0" devices="tripinfo_right_5" vType="Car@right_5" speedFactor="0.83" vaporized=""/>
    <tripinfo id="left_44" depart="15.20" departLane="8to7_0" departPos="5.10" departSpeed="14.49" departDelay="6.20" arrival="150.80" arrivalLane="outl_0" arrivalPos="492.80" arrivalSpeed="14.47" duration="135.60" routeLength="1494.90" waitingTime="5.40" waitingCount="2" stopTime="0.00" timeLoss="32.38" rerouteNo="0" devices="tripinfo_left_44" vType="Car@left_44" speedFactor="1.04" vaporized=""/>
    <tripinfo id="right_9" depart="2.80" departLane="1to2_0" departPos="5.10" departSpeed="11.90" departDelay="0.80" arrival="152.60" arrivalLane="outr_0" arrivalPos="492.80" arrivalSpeed="11.87" duration="149.80" routeLength="1494.90" waitingTime="2.80" waitingCount="2" stopTime="0.00" timeLoss="24.12" rerouteNo="0" devices="tripinfo_right_9" vType="Car@right_9" speedFactor="0.86" vaporized=""/>
    <tripinfo id="right_14" depart="5.20" departLane="1to2_0" departPos="5.10" departSpeed="13.77" departDelay="2.20" arrival="153.40" arrivalLane="outr_0" arrivalPos="492.80" arrivalSpeed="12.15" duration="148.20" routeLength="1494.90" waitingTime="5.40" waitingCount="2" stopTime="0.00" timeLoss="39.48" rerouteNo="0" devices="tripinfo_right_14" vType="Car@right_14" speedFactor="0.99" vaporized=""/>
    <tripinfo id="left_48" depart="16.20" departLane="8to7_0" departPos="5.10" departSpeed="12.18" departDelay="6.20" arrival="157.80" arrivalLane="outl_0" arrivalPos="492.80" arrivalSpeed="12.18" duration="141.60" routeLength="1494.90" waitingTime="1.00" waitingCount="1" stopTime="0.00" timeLoss="18.75" rerouteNo="0" devices="tripinfo_left_48" vType="Car@left_48" speedFactor="0.88" vaporized=""/>
    <tripinfo id="up_4_flaw" depart="1.80" departLane="12to7_0" departPos="5.10" departSpeed="14.31" departDelay="0.80" arrival="167.20" arrivalLane="outn_0" arrivalPos="496.00" arrivalSpeed="0.16" duration="165.40" routeLength="1494.90" waitingTime="14.20" waitingCount="4" stopTime="18.00" timeLoss="42.92" rerouteNo="0" devices="tripinfo_up_4_flaw" vType="Car@up_4_flaw" speedFactor="1.03" vaporized=""/>
    <tripinfo id="down_23_flaw" depart="8.40" departLane="9to2_0" departPos="5.10" departSpeed="12.36" departDelay="3.40" arrival="170.00" arrivalLane="outs_0" arrivalPos="496.00" arrivalSpeed="0.16" duration="161.60" routeLength="1494.90" waitingTime="0.80" waitingCount="3" stopTime="18.00" timeLoss="22.59" rerouteNo="0" devices="tripinfo_down_23_flaw" vType="Car@down_23_flaw" speedFactor="0.89" vaporized=""/>
    <tripinfo id="up_7" depart="2.80" departLane="12to7_0" departPos="5.10" departSpeed="12.31" departDelay="1.80" arrival="171.00" arrivalLane="outn_0" arrivalPos="496.00" arrivalSpeed="12.10" duration="168.20" routeLength="1494.90" waitingTime="26.40" waitingCount="2" stopTime="0.00" timeLoss="46.66" rerouteNo="0" devices="tripinfo_up_7" vType="Car@up_7" speedFactor="0.89" vaporized=""/>
    <tripinfo id="up_11" depart="5.20" departLane="12to7_0" departPos="5.10" departSpeed="14.26" departDelay="3.20" arrival="171.80" arrivalLane="outn_0" arrivalPos="496.00" arrivalSpeed="12.23" duration="166.60" routeLength="1494.90" waitingTime="27.40" waitingCount="2" stopTime="0.00" timeLoss="61.61" rerouteNo="0" devices="tripinfo_up_11" vType="Car@up_11" speedFactor="1.03" vaporized=""/>
    <tripinfo id="down_25" depart="10.00" departLane="9to2_0" departPos="5.10" departSpeed="12.12" departDelay="5.00" arrival="172.20" arrivalLane="outs_0" arrivalPos="496.00" arrivalSpeed="11.22" duration="162.20" routeLength="1494.90" waitingTime="16.60" waitingCount="2" stopTime="0.00" timeLoss="38.87" rerouteNo="0" devices="tripinfo_down_25" vType="Car@down_25" speedFactor="0.87" vaporized=""/>
    <tripinfo id="up_13_flaw" depart="7.40" departLane="12to7_0" departPos="5.10" departSpeed="15.60" departDelay="4.40" arrival="172.80" arrivalLane="outn_0" arrivalPos="496.00" arrivalSpeed="13.83" duration="165.40" routeLength="1494.90" waitingTime="29.20" waitingCount="3" stopTime="8.20" timeLoss="61.26" rerouteNo="0" devices="tripinfo_up_13_flaw" vType="Car@up_13_flaw" speedFactor="1.12" vaporized=""/>
    <tripinfo id="down_30" depart="13.60" departLane="9to2_0" departPos="5.10" departSpeed="16.37" departDelay="7.60" arrival="173.20" arrivalLane="outs_0" arrivalPos="496.00" arrivalSpeed="10.78" duration="159.60" routeLength="1494.90" waitingTime="20.40" waitingCount="2" stopTime="0.00" timeLoss="68.27" rerouteNo="0" devices="tripinfo_down_30" vType="Car@down_30" speedFactor="1.18" vaporized=""/>
    <tripinfo id="down_34" depart="14.40" departLane="9to2_0" departPos="5.10" departSpeed="13.82" departDelay="7.40" arrival="174.20" arrivalLane="outs_0" arrivalPos="496.00" arrivalSpeed="11.93" duration="159.80" routeLength="1494.90" waitingTime="25.00" waitingCount="2" stopTime="0.00" timeLoss="51.60" rerouteNo="0" devices="tripinfo_down_34" vType="Car@down_34" speedFactor="0.99" vaporized=""/>
    <tripinfo id="down_38" depart="16.60" departLane="9to2_0" departPos="5.10" departSpeed="15.31" departDelay="8.60" arrival="175.00" arrivalLane="outs_0" arrivalPos="496.00" arrivalSpeed="12.62" duration="158.40" routeLength="1494.90" waitingTime="29.80" waitingCount="2" stopTime="0.00" timeLoss="60.73" rerouteNo="0" devices="tripinfo_down_38" vType="Car@down_38" speedFactor="1.10" vaporized=""/>
    <tripinfo id="left_53" depart="19.20" departLane="8to7_0" departPos="5.10" departSpeed="15.22" departDelay="8.20" arrival="180.80" arrivalLane="outl_0" arrivalPos="492.80" arrivalSpeed="15.21" duration="161.60" routeLength="1494.90" waitingTime="3.20" waitingCount="3" stopTime="21.20" timeLoss="42.14" rerouteNo="0" devices="tripinfo_left_53" vType="Car@left_53" speedFactor="1.10" vaporized=""/>
    <tripinfo id="up_16" depart="8.00" departLane="12to7_0" departPos="5.10" departSpeed="12.20" departDelay="5.00" arrival="189.40" arrivalLane="outn_0" arrivalPos="496.00" arrivalSpeed="12.20" duration="181.40" routeLength="1494.90" waitingTime="36.20" waitingCount="3" stopTime="0.00" timeLoss="58.83" rerouteNo="0" devices="tripinfo_up_16" vType="Car@up_16" speedFactor="0.88" vaporized=""/>
    <tripinfo id="up_21" depart="10.40" departLane="12to7_0" departPos="5.10" departSpeed="14.03" departDelay="6.40" arrival="190.20" arrivalLane="outn_0" arrivalPos="496.00" arrivalSpeed="12.46" duration="179.80" routeLength="1494.90" waitingTime="38.00" waitingCount="3" stopTime="0.00" timeLoss="73.14" rerouteNo="0" devices="tripinfo_up_21" vType="Car@up_21" speedFactor="1.01" vaporized=""/>
    <tripinfo id="left_58" depart="20.60" departLane="8to7_0" departPos="5.10" departSpeed="14.22" departDelay="8.60" arrival="190.60" arrivalLane="outl_0" arrivalPos="492.80" arrivalSpeed="14.22" duration="170.00" routeLength="1494.90" waitingTime="20.00" waitingCount="3" stopTime="18.60" timeLoss="46.18" rerouteNo="0" devices="tripinfo_left_58" vType="Car@left_58" speedFactor="1.02" vaporized=""/>
    <tripinfo id="left_63" depart="22.00" departLane="8to7_0" departPos="5.10" departSpeed="13.71" departDelay="9.00" arrival="195.80" arrivalLane="outl_0" arrivalPos="492.80" arrivalSpeed="13.71" duration="173.80" routeLength="1494.90" waitingTime="39.80" waitingCount="3" stopTime="0.00" timeLoss="64.75" rerouteNo="0" devices="tripinfo_left_63" vType="Car@left_63" speedFactor="0.99" vaporized=""/>
    <tripinfo id="left_68" depart="24.00" departLane="8to7_0" departPos="5.10" departSpeed="14.44" departDelay="10.00" arrival="196.80" arrivalLane="outl_0" arrivalPos="492.80" arrivalSpeed="13.89" duration="172.80" routeLength="1494.90" waitingTime="41.40" waitingCount="3" stopTime="0.00" timeLoss="69.13" rerouteNo="0" devices="tripinfo_left_68" vType="Car@left_68" speedFactor="1.04" vaporized=""/>
    <tripinfo id="left_73" depart="25.80" departLane="8to7_0" departPos="5.10" departSpeed="14.66" departDelay="10.80" arrival="197.60" arrivalLane="outl_0" arrivalPos="492.80" arrivalSpeed="14.01" duration="171.80" routeLength="1494.90" waitingTime="43.20" waitingCount="3" stopTime="0.00" timeLoss="69.69" rerouteNo="0" devices="tripinfo_left_73" vType="Car@left_73" speedFactor="1.06" vaporized=""/>
    <tripinfo id="right_18_flaw" depart="6.60" departLane="1to2_0" departPos="5.10" departSpeed="13.00" departDelay="2.60" arrival="199.00" arrivalLane="outr_0" arrivalPos="492.80" arrivalSpeed="0.16" duration="192.40" routeLength="1494.90" waitingTime="6.40" waitingCount="4" stopTime="39.80" timeLoss="37.64" rerouteNo="0" devices="tripinfo_right_18_flaw" vType="Car@right_18_flaw" speedFactor="0.94" vaporized=""/>
    <tripinfo id="left_78" depart="27.20" departLane="8to7_0" departPos="5.10" departSpeed="13.99" departDelay="11.20" arrival="201.60" arrivalLane="outl_0" arrivalPos="492.80" arrivalSpeed="13.99" duration="174.40" routeLength="1494.90" waitingTime="43.20" waitingCount="3" stopTime="0.00" timeLoss="67.52" rerouteNo="0" devices="tripinfo_left_78" vType="Car@left_78" speedFactor="1.01" vaporized=""/>
    <tripinfo id="right_19" depart="9.60" departLane="1to2_0" departPos="5.10" departSpeed="16.09" departDelay="5.60" arrival="202.40" arrivalLane="outr_0" arrivalPos="492.80" arrivalSpeed="15.40" duration="192.80" routeLength="1494.90" waitingTime="50.20" waitingCount="4" stopTime="0.00" timeLoss="99.86" rerouteNo="0" devices="tripinfo_right_19" vType="Car@right_19" speedFactor="1.16" vaporized=""/>
    <tripinfo id="up_26" depart="11.60" departLane="12to7_0" departPos="5.10" departSpeed="12.74" departDelay="6.60" arrival="203.20" arrivalLane="outn_0" arrivalPos="496.00" arrivalSpeed="12.74" duration="191.60" routeLength="1494.90" waitingTime="41.80" waitingCount="4" stopTime="0.00" timeLoss="74.18" rerouteNo="0" devices="tripinfo_up_26" vType="Car@up_26" speedFactor="0.92" vaporized=""/>
    <tripinfo id="down_42" depart="18.20" departLane="9to2_0" departPos="5.10" departSpeed="15.17" departDelay="9.20" arrival="214.20" arrivalLane="outs_0" arrivalPos="496.00" arrivalSpeed="15.16" duration="196.00" routeLength="1494.90" waitingTime="20.00" waitingCount="3" stopTime="42.60" timeLoss="54.66" rerouteNo="0" devices="tripinfo_down_42" vType="Car@down_42" speedFactor="1.09" vaporized=""/>
    <tripinfo id="right_24" depart="10.20" departLane="1to2_0" departPos="5.10" departSpeed="11.47" departDelay="5.20" arrival="214.40" arrivalLane="outr_0" arrivalPos="492.80" arrivalSpeed="11.47" duration="204.20" routeLength="1494.90" waitingTime="41.00" waitingCount="4" stopTime="0.00" timeLoss="73.83" rerouteNo="0" devices="tripinfo_right_24" vType="Car@right_24" speedFactor="0.83" vaporized=""/>
    <tripinfo id="right_29" depart="12.60" departLane="1to2_0" departPos="5.10" departSpeed="12.94" departDelay="6.60" arrival="215.20" arrivalLane="outr_0" arrivalPos="492.80" arrivalSpeed="11.72" duration="202.60" routeLength="1494.90" waitingTime="44.40" waitingCount="4" stopTime="0.00" timeLoss="87.00" rerouteNo="0" devices="tripinfo_right_29" vType="Car@right_29" speedFactor="0.93" vaporized=""/>
    <tripinfo id="right_33" depart="15.80" departLane="1to2_0" departPos="5.10" departSpeed="16.28" departDelay="8.80" arrival="216.00" arrivalLane="outr_0" arrivalPos="492.80" arrivalSpeed="11.97" duration="200.20" routeLength="1494.90" waitingTime="46.40" waitingCount="5" stopTime="0.00" timeLoss="108.24" rerouteNo="0" devices="tripinfo_right_33" vType="Car@right_33" speedFactor="1.17" vaporized=""/>
    <tripinfo id="right_37" depart="17.40" departLane="1to2_0" departPos="5.10" departSpeed="16.39" departDelay="9.40" arrival="216.60" arrivalLane="outr_0" arrivalPos="492.80" arrivalSpeed="11.88" duration="199.20" routeLength="1494.90" waitingTime="52.60" waitingCount="4" stopTime="0.00" timeLoss="107.92" rerouteNo="0" devices="tripinfo_right_37" vType="Car@right_37" speedFactor="1.18" vaporized=""/>
    <tripinfo id="right_41" depart="18.20" departLane="1to2_0" departPos="5.10" departSpeed="13.29" departDelay="9.20" arrival="220.20" arrivalLane="outr_0" arrivalPos="492.80" arrivalSpeed="13.25" duration="202.00" routeLength="1494.90" waitingTime="53.20" waitingCount="4" stopTime="0.00" timeLoss="89.49" rerouteNo="0" devices="tripinfo_right_41" vType="Car@right_41" speedFactor="0.96" vaporized=""/>
    <tripinfo id="right_45" depart="20.60" departLane="1to2_0" departPos="5.10" departSpeed="15.11" departDelay="10.60" arrival="221.00" arrivalLane="outr_0" arrivalPos="492.80" arrivalSpeed="13.54" duration="200.40" routeLength="1494.90" waitingTime="56.80" waitingCount="4" stopTime="0.00" timeLoss="101.32" rerouteNo="0" devices="tripinfo_right_45" vType="Car@right_45" speedFactor="1.09" vaporized=""/>
    <tripinfo id="left_83" depart="28.60" departLane="8to7_0" departPos="5.10" departSpeed="13.43" departDelay="11.60" arrival="225.60" arrivalLane="outl_0" arrivalPos="492.80" arrivalSpeed="13.43" duration="197.00" routeLength="1494.90" waitingTime="43.80" waitingCount="4" stopTime="11.40" timeLoss="74.16" rerouteNo="0" devices="tripinfo_left_83" vType="Car@left_83" speedFactor="0.97" vaporized=""/>
    <tripinfo id="left_88" depart="30.40" departLane="8to7_0" departPos="5.10" departSpeed="13.99" departDelay="12.40" arrival="226.60" arrivalLane="outl_0" arrivalPos="492.80" arrivalSpeed="13.67" duration="196.20" routeLength="1494.90" waitingTime="57.00" waitingCount="4" stopTime="0.00" timeLoss="89.21" rerouteNo="0" devices="tripinfo_left_88" vType="Car@left_88" speedFactor="1.01" vaporized=""/>
    <tripinfo id="right_50" depart="21.40" departLane="1to2_0" departPos="5.10" departSpeed="11.87" departDelay="10.40" arrival="228.80" arrivalLane="outr_0" arrivalPos="492.80" arrivalSpeed="11.87" duration="207.40" routeLength="1494.90" waitingTime="47.80" waitingCount="4" stopTime="0.00" timeLoss="81.38" rerouteNo="0" devices="tripinfo_right_50" vType="Car@right_50" speedFactor="0.85" vaporized=""/>
    <tripinfo id="right_55" depart="24.00" departLane="1to2_0" departPos="5.10" departSpeed="13.83" departDelay="12.00" arrival="229.40" arrivalLane="outr_0" arrivalPos="492.80" arrivalSpeed="12.09" duration="205.40" routeLength="1494.90" waitingTime="50.80" waitingCount="4" stopTime="0.00" timeLoss="97.34" rerouteNo="0" devices="tripinfo_right_55" vType="Car@right_55" speedFactor="1.00" vaporized=""/>
    <tripinfo id="left_92" depart="31.40" departLane="8to7_0" departPos="5.10" departSpeed="11.58" departDelay="12.40" arrival="241.80" arrivalLane="outl_0" arrivalPos="492.80" arrivalSpeed="11.58" duration="210.40" routeLength="1494.90" waitingTime="52.00" waitingCount="4" stopTime="0.00" timeLoss="81.24" rerouteNo="0" devices="tripinfo_left_92" vType="Car@left_92" speedFactor="0.83" vaporized=""/>
    <tripinfo id="down_46" depart="19.40" departLane="9to2_0" departPos="5.10" departSpeed="13.85" departDelay="9.40" arrival="242.00" arrivalLane="outs_0" arrivalPos="496.00" arrivalSpeed="13.85" duration="222.60" routeLength="1494.90" waitingTime="63.00" waitingCount="3" stopTime="28.00" timeLoss="86.53" rerouteNo="0" devices="tripinfo_down_46" vType="Car@down_46" speedFactor="1.00" vaporized=""/>
    <tripinfo id="left_96" depart="34.20" departLane="8to7_0" departPos="5.10" departSpeed="14.03" departDelay="14.20" arrival="242.60" arrivalLane="outl_0" arrivalPos="492.80" arrivalSpeed="11.91" duration="208.40" routeLength="1494.90" waitingTime="54.00" waitingCount="4" stopTime="0.00" timeLoss="101.72" rerouteNo="0" devices="tripinfo_left_96" vType="Car@left_96" speedFactor="1.01" vaporized=""/>
    <tripinfo id="up_28_flaw" depart="14.60" departLane="12to7_0" departPos="5.10" departSpeed="15.72" departDelay="8.60" arrival="244.20" arrivalLane="outn_0" arrivalPos="496.00" arrivalSpeed="0.16" duration="229.60" routeLength="1494.90" waitingTime="43.40" waitingCount="6" stopTime="41.20" timeLoss="93.29" rerouteNo="0" devices="tripinfo_up_28_flaw" vType="Car@up_28_flaw" speedFactor="1.13" vaporized=""/>
    <tripinfo id="up_31" depart="16.40" departLane="12to7_0" departPos="5.10" departSpeed="16.04" departDelay="10.40" arrival="245.60" arrivalLane="outn_0" arrivalPos="496.00" arrivalSpeed="10.01" duration="229.20" routeLength="1494.90" waitingTime="88.40" waitingCount="4" stopTime="0.00" timeLoss="135.98" rerouteNo="0" devices="tripinfo_up_31" vType="Car@up_31" speedFactor="1.15" vaporized=""/>
    <tripinfo id="up_35" depart="17.40" departLane="12to7_0" departPos="5.10" departSpeed="14.16" departDelay="10.40" arrival="250.40" arrivalLane="outn_0" arrivalPos="496.00" arrivalSpeed="14.13" duration="233.00" routeLength="1494.90" waitingTime="70.20" waitingCount="5" stopTime="11.40" timeLoss="116.03" rerouteNo="0" devices="tripinfo_up_35" vType="Car@up_35" speedFactor="1.02" vaporized=""/>
    <tripinfo id="down_51" depart="22.00" departLane="9to2_0" departPos="5.10" departSpeed="16.24" departDelay="11.00" arrival="252.60" arrivalLane="outs_0" arrivalPos="496.00" arrivalSpeed="16.23" duration="230.60" routeLength="1494.90" waitingTime="92.40" waitingCount="4" stopTime="11.40" timeLoss="126.95" rerouteNo="0" devices="tripinfo_down_51" vType="Car@down_51" speedFactor="1.17" vaporized=""/>
    <tripinfo id="up_39" depart="18.60" departLane="12to7_0" departPos="5.10" departSpeed="12.51" departDelay="10.60" arrival="256.60" arrivalLane="outn_0" arrivalPos="496.00" arrivalSpeed="12.51" duration="238.00" routeLength="1494.90" waitingTime="77.60" waitingCount="4" stopTime="0.00" timeLoss="118.48" rerouteNo="0" devices="tripinfo_up_39" vType="Car@up_39" speedFactor="0.90" vaporized=""/>
    <tripinfo id="up_43" depart="21.00" departLane="12to7_0" departPos="5.10" departSpeed="14.41" departDelay="12.00" arrival="257.40" arrivalLane="outn_0" arrivalPos="496.00" arrivalSpeed="12.80" duration="236.40" routeLength="1494.90" waitingTime="78.80" waitingCount="4" stopTime="0.00" timeLoss="132.60" rerouteNo="0" devices="tripinfo_up_43" vType="Car@up_43" speedFactor="1.04" vaporized=""/>
    <tripinfo id="up_47" depart="22.00" departLane="12to7_0" departPos="5.10" departSpeed="12.51" departDelay="12.00" arrival="261.80" arrivalLane="outn_0" arrivalPos="496.00" arrivalSpeed="12.51" duration="239.80" routeLength="1494.90" waitingTime="79.60" waitingCount="4" stopTime="0.00" timeLoss="120.11" rerouteNo="0" devices="tripinfo_up_47" vType="Car@up_47" speedFactor="0.90" vaporized=""/>
    <tripinfo id="right_60" depart="26.20" departLane="1to2_0" departPos="5.10" departSpeed="15.04" departDelay="13.20" arrival="262.20" arrivalLane="outr_0" arrivalPos="492.80" arrivalSpeed="15.02" duration="236.00" routeLength="1494.90" waitingTime="54.20" waitingCount="5" stopTime="26.80" timeLoss="109.61" rerouteNo="0" devices="tripinfo_right_60" vType="Car@right_60" speedFactor="1.08" vaporized=""/>
    <tripinfo id="up_49_flaw" depart="23.40" departLane="12to7_0" departPos="5.10" departSpeed="11.81" departDelay="12.40" arrival="276.40" arrivalLane="outn_0" arrivalPos="496.00" arrivalSpeed="0.16" duration="253.00" routeLength="1494.90" waitingTime="83.00" waitingCount="6" stopTime="0.20" timeLoss="126.22" rerouteNo="0" devices="tripinfo_up_49_flaw" vType="Car@up_49_flaw" speedFactor="0.85" vaporized=""/>
    <tripinfo id="down_54_flaw" depart="23.00" departLane="9to2_0" departPos="5.10" departSpeed="13.93" departDelay="11.00" arrival="277.60" arrivalLane="outs_0" arrivalPos="496.00" arrivalSpeed="0.16" duration="254.60" routeLength="1494.90" waitingTime="103.80" waitingCount="6" stopTime="0.40" timeLoss="146.91" rerouteNo="0" devices="tripinfo_down_54_flaw" vType="Car@down_54_flaw" speedFactor="1.00" vaporized=""/>
    <tripinfo id="right_65" depart="27.00" departLane="1to2_0" departPos="5.10" departSpeed="12.26" departDelay="13.00" arrival="278.00" arrivalLane="outr_0" arrivalPos="492.80" arrivalSpeed="12.26" duration="251.00" routeLength="1494.90" waitingTime="82.00" waitingCount="6" stopTime="0.00" timeLoss="128.94" rerouteNo="0" devices="tripinfo_right_65" vType="Car@right_65" speedFactor="0.88" vaporized=""/>
    <tripinfo id="right_70" depart="29.60" departLane="1to2_0" departPos="5.10" departSpeed="14.21" departDelay="14.60" arrival="278.80" arrivalLane="outr_0" arrivalPos="492.80" arrivalSpeed="12.58" duration="249.20" routeLength="1494.90" waitingTime="85.80" waitingCount="6" stopTime="0.00" timeLoss="143.86" rerouteNo="0" devices="tripinfo_right_70" vType="Car@right_70" speedFactor="1.02" vaporized=""/>
    <tripinfo id="right_75" depart="31.20" departLane="1to2_0" departPos="5.10" departSpeed="13.68" departDelay="15.20" arrival="280.40" arrivalLane="outr_0" arrivalPos="492.80" arrivalSpeed="13.45" duration="249.20" routeLength="1494.90" waitingTime="89.60" waitingCount="6" stopTime="0.00" timeLoss="139.77" rerouteNo="0" devices="tripinfo_right_75" vType="Car@right_75" speedFactor="0.98" vaporized=""/>
    <tripinfo id="down_56" depart="24.20" departLane="9to2_0" departPos="5.10" departSpeed="12.49" departDelay="12.20" arrival="280.80" arrivalLane="outs_0" arrivalPos="496.00" arrivalSpeed="12.13" duration="256.60" routeLength="1494.90" waitingTime="100.60" waitingCount="4" stopTime="0.00" timeLoss="136.81" rerouteNo="0" devices="tripinfo_down_56" vType="Car@down_56" speedFactor="0.90" vaporized=""/>
    <tripinfo id="right_80" depart="33.00" departLane="1to2_0" departPos="5.10" departSpeed="14.37" departDelay="16.00" arrival="281.40" arrivalLane="outr_0" arrivalPos="492.80" arrivalSpeed="13.99" duration="248.40" routeLength="1494.90" waitingTime="93.60" waitingCount="6" stopTime="0.00" timeLoss="144.35" rerouteNo="0" devices="tripinfo_right_80" vType="Car@right_80" speedFactor="1.03" vaporized=""/>
    <tripinfo id="down_61" depart="27.20" departLane="9to2_0" departPos="5.10" departSpeed="15.55" departDelay="14.20" arrival="281.60" arrivalLane="outs_0" arrivalPos="496.00" arrivalSpeed="12.26" duration="254.40" routeLength="1494.90" waitingTime="102.40" waitingCount="4" stopTime="0.00" timeLoss="158.12" rerouteNo="0" devices="tripinfo_down_61" vType="Car@down_61" speedFactor="1.12" vaporized=""/>