<?xml version="1.0" encoding="UTF-8"?>

<!-- generated on 2021-12-24 13:17:50 by Eclipse SUMO GUI Version 1.10.0
<configuration xmlns:xsi="http://www.w3.org/2001/XMLSchema-instance" xsi:noNamespaceSchemaLocation="http://sumo.dlr.de/xsd/sumoConfiguration.xsd">

    <input>
        <net-file value="data/cross.net.xml"/>
        <route-files value="data/cross.rou.xml"/>
    </input>

    <output>
        <tripinfo-output value="data/out-tripinfo.xml"/>
    </output>

    <time>
        <begin value="0"/>
        <step-length value="0.2"/>
    </time>

    <processing>
        <collision.mingap-factor value="0"/>
    </processing>

    <report>
        <verbose value="true"/>
        <no-step-log value="true"/>
    </report>

    <traci_server>
        <remote-port value="59615"/>
    </traci_server>

    <gui_only>
        <tracker-interval value="0.2"/>
    </gui_only>

</configuration>
-->

<tripinfos xmlns:xsi="http://www.w3.org/2001/XMLSchema-instance" xsi:noNamespaceSchemaLocation="http://sumo.dlr.de/xsd/tripinfo_file.xsd">
    <tripinfo id="left_0_flaw" depart="0.00" departLane="8to7_0" departPos="5.10" departSpeed="14.72" departDelay="0.00" arrival="128.20" arrivalLane="outl_0" arrivalPos="492.80" arrivalSpeed="0.16" duration="128.20" routeLength="1494.90" waitingTime="0.60" waitingCount="3" stopTime="0.60" timeLoss="26.04" rerouteNo="0" devices="tripinfo_left_0_flaw" vType="Car@left_0_flaw" speedFactor="1.06" vaporized=""/>
    <tripinfo id="right_2_flaw" depart="2.00" departLane="1to2_0" departPos="5.10" departSpeed="14.03" departDelay="0.00" arrival="134.40" arrivalLane="outr_0" arrivalPos="492.80" arrivalSpeed="0.16" duration="132.40" routeLength="1494.90" waitingTime="0.80" waitingCount="3" stopTime="0.80" timeLoss="25.06" rerouteNo="0" devices="tripinfo_right_2_flaw" vType="Car@right_2_flaw" speedFactor="1.01" vaporized=""/>
    <tripinfo id="left_3_flaw" depart="3.00" departLane="8to7_0" departPos="5.10" departSpeed="15.04" departDelay="0.00" arrival="135.00" arrivalLane="outl_0" arrivalPos="492.80" arrivalSpeed="0.16" duration="132.00" routeLength="1494.90" waitingTime="1.20" waitingCount="3" stopTime="0.60" timeLoss="31.97" rerouteNo="0" devices="tripinfo_left_3_flaw" vType="Car@left_3_flaw" speedFactor="1.08" vaporized=""/>
    <tripinfo id="down_1_flaw" depart="1.00" departLane="9to2_0" departPos="5.10" departSpeed="13.03" departDelay="0.00" arrival="143.80" arrivalLane="outs_0" arrivalPos="496.00" arrivalSpeed="0.16" duration="142.80" routeLength="1494.90" waitingTime="5.00" waitingCount="3" stopTime="0.40" timeLoss="27.68" rerouteNo="0" devices="tripinfo_down_1_flaw" vType="Car@down_1_flaw" speedFactor="0.94" vaporized=""/>
    <tripinfo id="right_4_flaw" depart="4.00" departLane="1to2_0" departPos="5.10" departSpeed="14.31" departDelay="0.00" arrival="158.20" arrivalLane="outr_0" arrivalPos="492.80" arrivalSpeed="0.16" duration="154.20" routeLength="1494.90" waitingTime="3.00" waitingCount="4" stopTime="18.00" timeLoss="31.71" rerouteNo="0" devices="tripinfo_right_4_flaw" vType="Car@right_4_flaw" speedFactor="1.03" vaporized=""/>
    <tripinfo id="left_10_flaw" depart="10.00" departLane="8to7_0" departPos="5.10" departSpeed="15.15" departDelay="0.00" arrival="162.20" arrivalLane="outl_0" arrivalPos="492.80" arrivalSpeed="0.16" duration="152.20" routeLength="1494.90" waitingTime="1.20" waitingCount="4" stopTime="21.20" timeLoss="32.31" rerouteNo="0" devices="tripinfo_left_10_flaw" vType="Car@left_10_flaw" speedFactor="1.09" vaporized=""/>
    <tripinfo id="right_11_flaw" depart="11.00" departLane="1to2_0" departPos="5.10" departSpeed="14.26" departDelay="0.00" arrival="170.60" arrivalLane="outr_0" arrivalPos="492.80" arrivalSpeed="0.16" duration="159.60" routeLength="1494.90" waitingTime="19.40" waitingCount="4" stopTime="5.40" timeLoss="49.33" rerouteNo="0" devices="tripinfo_right_11_flaw" vType="Car@right_11_flaw" speedFactor="1.03" vaporized=""/>
    <tripinfo id="down_12_flaw" depart="12.00" departLane="9to2_0" departPos="5.10" departSpeed="14.54" departDelay="0.00" arrival="182.00" arrivalLane="outs_0" arrivalPos="496.00" arrivalSpeed="0.16" duration="170.00" routeLength="1494.90" waitingTime="0.80" waitingCount="3" stopTime="40.60" timeLoss="26.58" rerouteNo="0" devices="tripinfo_down_12_flaw" vType="Car@down_12_flaw" speedFactor="1.05" vaporized=""/>
    <tripinfo id="right_13_flaw" depart="13.20" departLane="1to2_0" departPos="5.10" departSpeed="15.60" departDelay="0.20" arrival="194.60" arrivalLane="outr_0" arrivalPos="492.80" arrivalSpeed="0.16" duration="181.40" routeLength="1494.90" waitingTime="28.00" waitingCount="6" stopTime="15.40" timeLoss="70.14" rerouteNo="0" devices="tripinfo_right_13_flaw" vType="Car@right_13_flaw" speedFactor="1.12" vaporized=""/>
    <tripinfo id="up_5_flaw" depart="5.00" departLane="12to7_0" departPos="5.10" departSpeed="11.54" departDelay="0.00" arrival="207.80" arrivalLane="outn_0" arrivalPos="496.00" arrivalSpeed="0.16" duration="202.80" routeLength="1494.90" waitingTime="3.60" waitingCount="3" stopTime="47.40" timeLoss="25.85" rerouteNo="0" devices="tripinfo_up_5_flaw" vType="Car@up_5_flaw" speedFactor="0.83" vaporized=""/>
    <tripinfo id="up_6_flaw" depart="8.00" departLane="12to7_0" departPos="5.10" departSpeed="14.53" departDelay="2.00" arrival="213.80" arrivalLane="outn_0" arrivalPos="496.00" arrivalSpeed="0.80" duration="205.80" routeLength="1494.90" waitingTime="48.60" waitingCount="4" stopTime="6.60" timeLoss="96.30" rerouteNo="0" devices="tripinfo_up_6_flaw" vType="Car@up_6_flaw" speedFactor="1.05" vaporized=""/>
    <tripinfo id="down_15_flaw" depart="15.00" departLane="9to2_0" departPos="5.10" departSpeed="12.87" departDelay="0.00" arrival="214.00" arrivalLane="outs_0" arrivalPos="496.00" arrivalSpeed="0.16" duration="199.00" routeLength="1494.90" waitingTime="36.40" waitingCount="4" stopTime="19.20" timeLoss="63.66" rerouteNo="0" devices="tripinfo_down_15_flaw" vType="Car@down_15_flaw" speedFactor="0.93" vaporized=""/>
    <tripinfo id="down_20_flaw" depart="20.00" departLane="9to2_0" departPos="5.10" departSpeed="14.14" departDelay="0.00" arrival="227.20" arrivalLane="outs_0" arrivalPos="496.00" arrivalSpeed="0.16" duration="207.20" routeLength="1494.90" waitingTime="56.60" waitingCount="5" stopTime="9.00" timeLoss="92.49" rerouteNo="0" devices="tripinfo_down_20_flaw" vType="Car@down_20_flaw" speedFactor="1.02" vaporized=""/>
    <tripinfo id="right_24_flaw" depart="24.00" departLane="1to2_0" departPos="5.10" departSpeed="11.47" departDelay="0.00" arrival="235.20" arrivalLane="outr_0" arrivalPos="492.80" arrivalSpeed="0.16" duration="211.20" routeLength="1494.90" waitingTime="15.40" waitingCount="7" stopTime="28.20" timeLoss="52.64" rerouteNo="0" devices="tripinfo_right_24_flaw" vType="Car@right_24_flaw" speedFactor="0.83" vaporized=""/>
    <tripinfo id="up_7_flaw" depart="9.00" departLane="12to7_0" departPos="5.10" departSpeed="12.31" departDelay="2.00" arrival="250.20" arrivalLane="outn_0" arrivalPos="496.00" arrivalSpeed="0.16" duration="241.20" routeLength="1494.90" waitingTime="45.20" waitingCount="5" stopTime="43.20" timeLoss="76.51" rerouteNo="0" devices="tripinfo_up_7_flaw" vType="Car@up_7_flaw" speedFactor="0.89" vaporized=""/>
    <tripinfo id="left_17_flaw" depart="17.00" departLane="8to7_0" departPos="5.10" departSpeed="13.08" departDelay="0.00" arrival="258.80" arrivalLane="outl_0" arrivalPos="492.80" arrivalSpeed="0.16" duration="241.80" routeLength="1494.90" waitingTime="17.00" waitingCount="4" stopTime="82.60" timeLoss="44.85" rerouteNo="0" devices="tripinfo_left_17_flaw" vType="Car@left_17_flaw" speedFactor="0.94" vaporized=""/>
    <tripinfo id="right_25_flaw" depart="26.00" departLane="1to2_0" departPos="5.10" departSpeed="12.12" departDelay="1.00" arrival="261.20" arrivalLane="outr_0" arrivalPos="492.80" arrivalSpeed="0.16" duration="235.20" routeLength="1494.90" waitingTime="44.40" waitingCount="8" stopTime="23.00" timeLoss="88.84" rerouteNo="0" devices="tripinfo_right_25_flaw" vType="Car@right_25_flaw" speedFactor="0.87" vaporized=""/>
    <tripinfo id="up_8_flaw" depart="11.00" departLane="12to7_0" departPos="5.10" departSpeed="13.03" departDelay="3.00" arrival="264.20" arrivalLane="outn_0" arrivalPos="496.00" arrivalSpeed="0.16" duration="253.20" routeLength="1494.90" waitingTime="90.60" waitingCount="6" stopTime="7.80" timeLoss="130.62" rerouteNo="0" devices="tripinfo_up_8_flaw" vType="Car@up_8_flaw" speedFactor="0.94" vaporized=""/>
    <tripinfo id="left_18_flaw" depart="18.60" departLane="8to7_0" departPos="5.10" departSpeed="13.00" departDelay="0.60" arrival="276.20" arrivalLane="outl_0" arrivalPos="492.80" arrivalSpeed="0.16" duration="257.60" routeLength="1494.90" waitingTime="100.40" waitingCount="5" stopTime="10.40" timeLoss="132.21" rerouteNo="0" devices="tripinfo_left_18_flaw" vType="Car@left_18_flaw" speedFactor="0.94" vaporized=""/>
    <tripinfo id="left_19_flaw" depart="21.60" departLane="8to7_0" departPos="5.10" departSpeed="16.09" departDelay="2.60" arrival="282.80" arrivalLane="outl_0" arrivalPos="492.80" arrivalSpeed="0.16" duration="261.20" routeLength="1494.90" waitingTime="112.00" waitingCount="6" stopTime="9.80" timeLoss="158.46" rerouteNo="0" devices="tripinfo_left_19_flaw" vType="Car@left_19_flaw" speedFactor="1.16" vaporized=""/>
    <tripinfo id="up_9_flaw" depart="12.40" departLane="12to7_0" departPos="5.10" departSpeed="11.90" departDelay="3.40" arrival="285.80" arrivalLane="outn_0" arrivalPos="496.00" arrivalSpeed="0.16" duration="273.40" routeLength="1494.90" waitingTime="96.40" waitingCount="7" stopTime="8.40" timeLoss="139.39" rerouteNo="0" devices="tripinfo_up_9_flaw" vType="Car@up_9_flaw" speedFactor="0.86" vaporized=""/>
    <tripinfo id="left_21_flaw" depart="22.60" departLane="8to7_0" departPos="5.10" departSpeed="14.03" departDelay="1.60" arrival="302.80" arrivalLane="outl_0" arrivalPos="492.80" arrivalSpeed="0.16" duration="280.20" routeLength="1494.90" waitingTime="123.20" waitingCount="7" stopTime="7.60" timeLoss="166.04" rerouteNo="0" devices="tripinfo_left_21_flaw" vType="Car@left_21_flaw" speedFactor="1.01" vaporized=""/>
    <tripinfo id="up_14_flaw" depart="14.80" departLane="12to7_0" departPos="5.10" departSpeed="13.77" departDelay="0.80" arrival="308.60" arrivalLane="outn_0" arrivalPos="496.00" arrivalSpeed="0.16" duration="293.80" routeLength="1494.90" waitingTime="107.80" waitingCount="9" stopTime="20.80" timeLoss="164.39" rerouteNo="0" devices="tripinfo_up_14_flaw" vType="Car@up_14_flaw" speedFactor="0.99" vaporized=""/>
    <tripinfo id="down_23_flaw" depart="23.00" departLane="9to2_0" departPos="5.10" departSpeed="12.36" departDelay="0.00" arrival="318.40" arrivalLane="outs_0" arrivalPos="496.00" arrivalSpeed="0.16" duration="295.40" routeLength="1494.90" waitingTime="59.80" waitingCount="6" stopTime="78.20" timeLoss="96.20" rerouteNo="0" devices="tripinfo_down_23_flaw" vType="Car@down_23_flaw" speedFactor="0.89" vaporized=""/>
    <tripinfo id="left_22_flaw" depart="24.00" departLane="8to7_0" departPos="5.10" departSpeed="13.54" departDelay="2.00" arrival="342.80" arrivalLane="outl_0" arrivalPos="492.80" arrivalSpeed="0.16" duration="318.80" routeLength="1494.90" waitingTime="129.80" waitingCount="8" stopTime="32.00" timeLoss="176.39" rerouteNo="0" devices="tripinfo_left_22_flaw" vType="Car@left_22_flaw" speedFactor="0.98" vaporized=""/>
    <tripinfo id="up_16_flaw" depart="16.00" departLane="12to7_0" departPos="5.10" departSpeed="12.20" departDelay="0.00" arrival="362.00" arrivalLane="outn_0" arrivalPos="496.00" arrivalSpeed="0.16" duration="346.00" routeLength="1494.90" waitingTime="130.60" waitingCount="10" stopTime="41.00" timeLoss="182.47" rerouteNo="0" devices="tripinfo_up_16_flaw" vType="Car@up_16_flaw" speedFactor="0.88" vaporized=""/>
    <tripinfo id="up_26_flaw" depart="26.00" departLane="12to7_0" departPos="5.10" departSpeed="12.74" departDelay="0.00" arrival="373.40" arrivalLane="outn_0" arrivalPos="496.00" arrivalSpeed="0.16" duration="347.40" routeLength="1494.90" waitingTime="164.80" waitingCount="11" stopTime="7.20" timeLoss="222.83" rerouteNo="0" devices="tripinfo_up_26_flaw" vType="Car@up_26_flaw" speedFactor="0.92" vaporized=""/>
    <tripinfo id="right_27_flaw" depart="28.20" departLane="1to2_0" departPos="5.10" departSpeed="13.18" departDelay="1.20" arrival="378.20" arrivalLane="outr_0" arrivalPos="492.80" arrivalSpeed="0.16" duration="350.00" routeLength="1494.90" waitingTime="68.20" waitingCount="9" stopTime="115.60" timeLoss="120.96" rerouteNo="0" devices="tripinfo_right_27_flaw" vType="Car@right_27_flaw" speedFactor="0.95" vaporized=""/>
    <tripinfo id="right_28_flaw" depart="31.00" departLane="1to2_0" departPos="5.10" departSpeed="15.72" departDelay="3.00" arrival="384.60" arrivalLane="outr_0" arrivalPos="492.80" arrivalSpeed="0.16" duration="353.60" routeLength="1494.90" waitingTime="183.20" waitingCount="11" stopTime="7.60" timeLoss="250.89" rerouteNo="0" devices="tripinfo_right_28_flaw" vType="Car@right_28_flaw" speedFactor="1.13" vaporized=""/>
    <tripinfo id="left_37_flaw" depart="37.00" departLane="8to7_0" departPos="5.10" departSpeed="16.39" departDelay="0.00" arrival="391.00" arrivalLane="outl_0" arrivalPos="492.80" arrivalSpeed="0.16" duration="354.00" routeLength="1494.90" waitingTime="157.40" waitingCount="10" stopTime="45.20" timeLoss="217.55" rerouteNo="0" devices="tripinfo_left_37_flaw" vType="Car@left_37_flaw" speedFactor="1.18" vaporized=""/>
    <tripinfo id="up_29_flaw" depart="29.00" departLane="12to7_0" departPos="5.10" departSpeed="12.94" departDelay="0.00" arrival="396.40" arrivalLane="outn_0" arrivalPos="496.00" arrivalSpeed="0.16" duration="367.40" routeLength="1494.90" waitingTime="171.80" waitingCount="12" stopTime="17.60" timeLoss="234.23" rerouteNo="0" devices="tripinfo_up_29_flaw" vType="Car@up_29_flaw" speedFactor="0.93" vaporized=""/>
    <tripinfo id="right_30_flaw" depart="32.80" departLane="1to2_0" departPos="5.10" departSpeed="16.37" departDelay="2.80" arrival="398.20" arrivalLane="outr_0" arrivalPos="492.80" arrivalSpeed="0.16" duration="365.40" routeLength="1494.90" waitingTime="191.60" waitingCount="12" stopTime="8.60" timeLoss="265.46" rerouteNo="0" devices="tripinfo_right_30_flaw" vType="Car@right_30_flaw" speedFactor="1.18" vaporized=""/>
    <tripinfo id="down_31_flaw" depart="31.00" departLane="9to2_0" departPos="5.10" departSpeed="16.04" departDelay="0.00" arrival="403.00" arrivalLane="outs_0" arrivalPos="496.00" arrivalSpeed="0.16" duration="372.00" routeLength="1494.90" waitingTime="130.20" waitingCount="7" stopTime="97.00" timeLoss="181.76" rerouteNo="0" devices="tripinfo_down_31_flaw" vType="Car@down_31_flaw" speedFactor="1.15" vaporized=""/>
    <tripinfo id="left_41_flaw" depart="41.00" departLane="8to7_0" departPos="5.10" departSpeed="13.29" departDelay="0.00" arrival="421.40" arrivalLane="outl_0" arrivalPos="492.80" arrivalSpeed="0.16" duration="380.40" routeLength="1494.90" waitingTime="194.40" waitingCount="11" stopTime="15.00" timeLoss="252.93" rerouteNo="0" devices="tripinfo_left_41_flaw" vType="Car@left_41_flaw" speedFactor="0.96" vaporized=""/>
    <tripinfo id="right_32_flaw" depart="33.60" departLane="1to2_0" departPos="5.10" departSpeed="13.96" departDelay="1.60" arrival="422.40" arrivalLane="outr_0" arrivalPos="492.80" arrivalSpeed="0.16" duration="388.80" routeLength="1494.90" waitingTime="201.20" waitingCount="13" stopTime="11.20" timeLoss="270.51" rerouteNo="0" devices="tripinfo_right_32_flaw" vType="Car@right_32_flaw" speedFactor="1.01" vaporized=""/>
    <tripinfo id="left_54_flaw" depart="54.00" departLane="8to7_0" departPos="5.10" departSpeed="13.93" departDelay="0.00" arrival="431.60" arrivalLane="outl_0" arrivalPos="492.80" arrivalSpeed="0.16" duration="377.60" routeLength="1494.90" waitingTime="199.40" waitingCount="12" stopTime="6.00" timeLoss="264.31" rerouteNo="0" devices="tripinfo_left_54_flaw" vType="Car@left_54_flaw" speedFactor="1.00" vaporized=""/>
    <tripinfo id="up_34_flaw" depart="34.00" departLane="12to7_0" departPos="5.10" departSpeed="13.82" departDelay="0.00" arrival="437.20" arrivalLane="outn_0" arrivalPos="496.00" arrivalSpeed="0.16" duration="403.20" routeLength="1494.90" waitingTime="189.40" waitingCount="14" stopTime="32.80" timeLoss="262.20" rerouteNo="0" devices="tripinfo_up_34_flaw" vType="Car@up_34_flaw" speedFactor="0.99" vaporized=""/>
    <tripinfo id="up_39_flaw" depart="39.00" departLane="12to7_0" departPos="5.10" departSpeed="12.51" departDelay="0.00" arrival="442.80" arrivalLane="outn_0" arrivalPos="496.00" arrivalSpeed="0.16" duration="403.80" routeLength="1494.90" waitingTime="215.80" waitingCount="14" stopTime="2.80" timeLoss="281.48" rerouteNo="0" devices="tripinfo_up_39_flaw" vType="Car@up_39_flaw" speedFactor="0.90" vaporized=""/>
    <tripinfo id="left_57_flaw" depart="57.00" departLane="8to7_0" departPos="5.10" departSpeed="15.87" departDelay="0.00" arrival="454.00" arrivalLane="outl_0" arrivalPos="492.80" arrivalSpeed="0.16" duration="397.00" routeLength="1494.90" waitingTime="206.40" waitingCount="13" stopTime="22.00" timeLoss="280.80" rerouteNo="0" devices="tripinfo_left_57_flaw" vType="Car@left_57_flaw" speedFactor="1.14" vaporized=""/>
    <tripinfo id="right_33_flaw" depart="36.20" departLane="1to2_0" departPos="5.10" departSpeed="16.28" departDelay="3.20" arrival="455.00" arrivalLane="outr_0" arrivalPos="492.80" arrivalSpeed="0.16" duration="418.80" routeLength="1494.90" waitingTime="212.40" waitingCount="14" stopTime="32.60" timeLoss="294.33" rerouteNo="0" devices="tripinfo_right_33_flaw" vType="Car@right_33_flaw" speedFactor="1.17" vaporized=""/>
    <tripinfo id="up_42_flaw" depart="42.00" departLane="12to7_0" departPos="5.10" departSpeed="15.17" departDelay="0.00" arrival="461.20" arrivalLane="outn_0" arrivalPos="496.00" arrivalSpeed="0.16" duration="419.20" routeLength="1494.90" waitingTime="220.60" waitingCount="16" stopTime="10.00" timeLoss="310.62" rerouteNo="0" devices="tripinfo_up_42_flaw" vType="Car@up_42_flaw" speedFactor="1.09" vaporized=""/>
    <tripinfo id="down_35_flaw" depart="35.00" departLane="9to2_0" departPos="5.10" departSpeed="14.16" departDelay="0.00" arrival="461.40" arrivalLane="outs_0" arrivalPos="496.00" arrivalSpeed="0.16" duration="426.40" routeLength="1494.90" waitingTime="223.80" waitingCount="8" stopTime="46.80" timeLoss="274.05" rerouteNo="0" devices="tripinfo_down_35_flaw" vType="Car@down_35_flaw" speedFactor="1.02" vaporized=""/>
    <tripinfo id="left_63_flaw" depart="63.00" departLane="8to7_0" departPos="5.10" departSpeed="13.71" departDelay="0.00" arrival="467.60" arrivalLane="outl_0" arrivalPos="492.80" arrivalSpeed="0.16" duration="404.60" routeLength="1494.90" waitingTime="224.60" waitingCount="12" stopTime="10.20" timeLoss="285.35" rerouteNo="0" devices="tripinfo_left_63_flaw" vType="Car@left_63_flaw" speedFactor="0.99" vaporized=""/>
    <tripinfo id="right_36_flaw" depart="37.00" departLane="1to2_0" departPos="5.10" departSpeed="13.52" departDelay="1.00" arrival="469.00" arrivalLane="outr_0" arrivalPos="492.80" arrivalSpeed="0.16" duration="432.00" routeLength="1494.90" waitingTime="230.80" waitingCount="14" stopTime="7.60" timeLoss="313.80" rerouteNo="0" devices="tripinfo_right_36_flaw" vType="Car@right_36_flaw" speedFactor="0.97" vaporized=""/>
    <tripinfo id="down_38_flaw" depart="38.00" departLane="9to2_0" departPos="5.10" departSpeed="15.31" departDelay="0.00" arrival="484.40" arrivalLane="outs_0" arrivalPos="496.00" arrivalSpeed="0.16" duration="446.40" routeLength="1494.90" waitingTime="272.20" waitingCount="9" stopTime="20.40" timeLoss="328.34" rerouteNo="0" devices="tripinfo_down_38_flaw" vType="Car@down_38_flaw" speedFactor="1.10" vaporized=""/>
    <tripinfo id="right_43_flaw" depart="43.00" departLane="1to2_0" departPos="5.10" departSpeed="14.41" departDelay="0.00" arrival="487.60" arrivalLane="outr_0" arrivalPos="492.80" arrivalSpeed="0.16" duration="444.60" routeLength="1494.90" waitingTime="238.40" waitingCount="14" stopTime="17.80" timeLoss="323.08" rerouteNo="0" devices="tripinfo_right_43_flaw" vType="Car@right_43_flaw" speedFactor="1.04" vaporized=""/>
    <tripinfo id="down_40_flaw" depart="40.00" departLane="9to2_0" departPos="5.10" departSpeed="14.31" departDelay="0.00" arrival="493.80" arrivalLane="outs_0" arrivalPos="496.00" arrivalSpeed="0.16" duration="453.80" routeLength="1494.90" waitingTime="280.60" waitingCount="11" stopTime="6.40" timeLoss="342.93" rerouteNo="0" devices="tripinfo_down_40_flaw" vType="Car@down_40_flaw" speedFactor="1.03" vaporized=""/>
    <tripinfo id="up_50_flaw" depart="50.00" departLane="12to7_0" departPos="5.10" departSpeed="11.87" departDelay="0.00" arrival="498.80" arrivalLane="outn_0" arrivalPos="496.00" arrivalSpeed="0.16" duration="448.80" routeLength="1494.90" waitingTime="221.80" waitingCount="17" stopTime="19.40" timeLoss="303.49" rerouteNo="0" devices="tripinfo_up_50_flaw" vType="Car@up_50_flaw" speedFactor="0.85" vaporized=""/>
    <tripinfo id="left_65_flaw" depart="65.00" departLane="8to7_0" departPos="5.10" departSpeed="12.26" departDelay="0.00" arrival="515.20" arrivalLane="outl_0" arrivalPos="492.80" arrivalSpeed="0.16" duration="450.20" routeLength="1494.90" waitingTime="231.60" waitingCount="14" stopTime="21.00" timeLoss="307.20" rerouteNo="0" devices="tripinfo_left_65_flaw" vType="Car@left_65_flaw" speedFactor="0.88" vaporized=""/>
    <tripinfo id="left_67_flaw" depart="67.00" departLane="8to7_0" departPos="5.10" departSpeed="12.70" departDelay="0.00" arrival="527.40" arrivalLane="outl_0" arrivalPos="492.80" arrivalSpeed="0.16" duration="460.40" routeLength="1494.90" waitingTime="254.60" waitingCount="14" stopTime="17.80" timeLoss="324.91" rerouteNo="0" devices="tripinfo_left_67_flaw" vType="Car@left_67_flaw" speedFactor="0.91" vaporized=""/>
    <tripinfo id="right_46_flaw" depart="46.00" departLane="1to2_0" departPos="5.10" departSpeed="13.85" departDelay="0.00" arrival="537.20" arrivalLane="outr_0" arrivalPos="492.80" arrivalSpeed="0.16" duration="491.20" routeLength="1494.90" waitingTime="257.00" waitingCount="15" stopTime="40.60" timeLoss="342.68" rerouteNo="0" devices="tripinfo_right_46_flaw" vType="Car@right_46_flaw" speedFactor="1.00" vaporized=""/>
    <tripinfo id="up_52_flaw" depart="52.60" departLane="12to7_0" departPos="5.10" departSpeed="14.12" departDelay="0.60" arrival="541.60" arrivalLane="outn_0" arrivalPos="496.00" arrivalSpeed="0.16" duration="489.00" routeLength="1494.90" waitingTime="245.60" waitingCount="17" stopTime="41.80" timeLoss="341.33" rerouteNo="0" devices="tripinfo_up_52_flaw" vType="Car@up_52_flaw" speedFactor="1.02" vaporized=""/>
    <tripinfo id="down_44_flaw" depart="44.00" departLane="9to2_0" departPos="5.10" departSpeed="14.49" departDelay="0.00" arrival="542.60" arrivalLane="outs_0" arrivalPos="496.00" arrivalSpeed="0.16" duration="498.60" routeLength="1494.90" waitingTime="286.20" waitingCount="13" stopTime="39.20" timeLoss="356.23" rerouteNo="0" devices="tripinfo_down_44_flaw" vType="Car@down_44_flaw" speedFactor="1.04" vaporized=""/>
    <tripinfo id="up_55_flaw" depart="55.00" departLane="12to7_0" departPos="5.10" departSpeed="13.83" departDelay="0.00" arrival="551.40" arrivalLane="outn_0" arrivalPos="496.00" arrivalSpeed="0.16" duration="496.40" routeLength="1494.90" waitingTime="276.00" waitingCount="19" stopTime="11.00" timeLoss="377.34" rerouteNo="0" devices="tripinfo_up_55_flaw" vType="Car@up_55_flaw" speedFactor="1.00" vaporized=""/>
    <tripinfo id="down_45_flaw" depart="45.80" departLane="9to2_0" departPos="5.10" departSpeed="15.11" departDelay="0.80" arrival="552.20" arrivalLane="outs_0" arrivalPos="496.00" arrivalSpeed="0.16" duration="506.40" routeLength="1494.90" waitingTime="317.00" waitingCount="14" stopTime="15.00" timeLoss="392.46" rerouteNo="0" devices="tripinfo_down_45_flaw" vType="Car@down_45_flaw" speedFactor="1.09" vaporized=""/>
    <tripinfo id="right_49_flaw" depart="49.00" departLane="1to2_0" departPos="5.10" departSpeed="11.81" departDelay="0.00" arrival="561.40" arrivalLane="outr_0" arrivalPos="492.80" arrivalSpeed="0.16" duration="512.40" routeLength="1494.90" waitingTime="279.60" waitingCount="18" stopTime="13.60" timeLoss="372.22" rerouteNo="0" devices="tripinfo_right_49_flaw" vType="Car@right_49_flaw" speedFactor="0.85" vaporized=""/>
    <tripinfo id="down_47_flaw" depart="47.00" departLane="9to2_0" departPos="5.10" departSpeed="12.51" departDelay="0.00" arrival="566.20" arrivalLane="outs_0" arrivalPos="496.00" arrivalSpeed="0.16" duration="519.20" routeLength="1494.90" waitingTime="326.40" waitingCount="14" stopTime="7.00" timeLoss="392.68" rerouteNo="0" devices="tripinfo_down_47_flaw" vType="Car@down_47_flaw" speedFactor="0.90" vaporized=""/>
    <tripinfo id="up_56_flaw" depart="56.20" departLane="12to7_0" departPos="5.10" departSpeed="12.49" departDelay="0.20" arrival="568.00" arrivalLane="outn_0" arrivalPos="496.00" arrivalSpeed="0.16" duration="511.80" routeLength="1494.90" waitingTime="261.80" waitingCount="20" stopTime="25.40" timeLoss="366.65" rerouteNo="0" devices="tripinfo_up_56_flaw" vType="Car@up_56_flaw" speedFactor="0.90" vaporized=""/>
    <tripinfo id="right_53_flaw" depart="53.00" departLane="1to2_0" departPos="5.10" departSpeed="15.22" departDelay="0.00" arrival="574.40" arrivalLane="outr_0" arrivalPos="492.80" arrivalSpeed="0.16" duration="521.40" routeLength="1494.90" waitingTime="290.00" waitingCount="19" stopTime="21.00" timeLoss="402.18" rerouteNo="0" devices="tripinfo_right_53_flaw" vType="Car@right_53_flaw" speedFactor="1.10" vaporized=""/>
    <tripinfo id="left_75_flaw" depart="75.00" departLane="8to7_0" departPos="5.10" departSpeed="13.68" departDelay="0.00" arrival="581.80" arrivalLane="outl_0" arrivalPos="492.80" arrivalSpeed="0.16" duration="506.80" routeLength="1494.90" waitingTime="268.80" waitingCount="15" stopTime="42.80" timeLoss="354.71" rerouteNo="0" devices="tripinfo_left_75_flaw" vType="Car@left_75_flaw" speedFactor="0.98" vaporized=""/>
    <tripinfo id="up_58_flaw" depart="58.60" departLane="12to7_0" departPos="5.10" departSpeed="14.22" departDelay="0.60" arrival="591.60" arrivalLane="outn_0" arrivalPos="496.00" arrivalSpeed="0.16" duration="533.00" routeLength="1494.90" waitingTime="279.00" waitingCount="20" stopTime="42.60" timeLoss="385.22" rerouteNo="0" devices="tripinfo_up_58_flaw" vType="Car@up_58_flaw" speedFactor="1.02" vaporized=""/>
    <tripinfo id="right_70_flaw" depart="70.00" departLane="1to2_0" departPos="5.10" departSpeed="14.21" departDelay="0.00" arrival="598.40" arrivalLane="outr_0" arrivalPos="492.80" arrivalSpeed="0.16" duration="528.40" routeLength="1494.90" waitingTime="265.40" waitingCount="18" stopTime="58.20" timeLoss="364.97" rerouteNo="0" devices="tripinfo_right_70_flaw" vType="Car@right_70_flaw" speedFactor="1.02" vaporized=""/>
    <tripinfo id="down_48_flaw" depart="48.60" departLane="9to2_0" departPos="5.10" departSpeed="12.18" departDelay="0.60" arrival="601.20" arrivalLane="outs_0" arrivalPos="496.00" arrivalSpeed="0.16" duration="552.60" routeLength="1494.90" waitingTime="334.20" waitingCount="16" stopTime="17.80" timeLoss="412.04" rerouteNo="0" devices="tripinfo_down_48_flaw" vType="Car@down_48_flaw" speedFactor="0.88" vaporized=""/>
    <tripinfo id="down_51_flaw" depart="52.00" departLane="9to2_0" departPos="5.10" departSpeed="16.24" departDelay="1.00" arrival="606.80" arrivalLane="outs_0" arrivalPos="496.00" arrivalSpeed="0.85" duration="554.80" routeLength="1494.90" waitingTime="352.80" waitingCount="17" stopTime="8.00" timeLoss="454.72" rerouteNo="0" devices="tripinfo_down_51_flaw" vType="Car@down_51_flaw" speedFactor="1.17" vaporized=""/>
    <tripinfo id="right_89_flaw" depart="89.00" departLane="1to2_0" departPos="5.10" departSpeed="14.20" departDelay="0.00" arrival="612.00" arrivalLane="outr_0" arrivalPos="492.80" arrivalSpeed="0.16" duration="523.00" routeLength="1494.90" waitingTime="317.20" waitingCount="17" stopTime="5.80" timeLoss="411.88" rerouteNo="0" devices="tripinfo_right_89_flaw" vType="Car@right_89_flaw" speedFactor="1.02" vaporized=""/>
    <tripinfo id="up_60_flaw" depart="60.60" departLane="12to7_0" departPos="5.10" departSpeed="15.04" departDelay="0.60" arrival="625.20" arrivalLane="outn_0" arrivalPos="496.00" arrivalSpeed="0.16" duration="564.60" routeLength="1494.90" waitingTime="320.80" waitingCount="21" stopTime="29.60" timeLoss="435.55" rerouteNo="0" devices="tripinfo_up_60_flaw" vType="Car@up_60_flaw" speedFactor="1.08" vaporized=""/>
    <tripinfo id="down_59_flaw" depart="59.00" departLane="9to2_0" departPos="5.10" departSpeed="13.47" departDelay="0.00" arrival="626.80" arrivalLane="outs_0" arrivalPos="496.00" arrivalSpeed="0.16" duration="567.80" routeLength="1494.90" waitingTime="355.20" waitingCount="18" stopTime="10.40" timeLoss="446.38" rerouteNo="0" devices="tripinfo_down_59_flaw" vType="Car@down_59_flaw" speedFactor="0.97" vaporized=""/>
    <tripinfo id="right_95_flaw" depart="95.00" departLane="1to2_0" departPos="5.10" departSpeed="14.68" departDelay="0.00" arrival="635.20" arrivalLane="outr_0" arrivalPos="492.80" arrivalSpeed="0.16" duration="540.20" routeLength="1494.90" waitingTime="320.20" waitingCount="18" stopTime="19.00" timeLoss="419.35" rerouteNo="0" devices="tripinfo_right_95_flaw" vType="Car@right_95_flaw" speedFactor="1.06" vaporized=""/>
    <tripinfo id="right_99_flaw" depart="99.00" departLane="1to2_0" departPos="5.10" departSpeed="15.24" departDelay="0.00" arrival="644.20" arrivalLane="outr_0" arrivalPos="492.80" arrivalSpeed="0.16" duration="545.20" routeLength="1494.90" waitingTime="339.60" waitingCount="19" stopTime="7.20" timeLoss="439.89" rerouteNo="0" devices="tripinfo_right_99_flaw" vType="Car@right_99_flaw" speedFactor="1.10" vaporized=""/>