<?xml version="1.0" encoding="UTF-8"?>

<!-- generated on 2021-12-30 09:36:55 by Eclipse SUMO sumo Version 1.10.0
<configuration xmlns:xsi="http://www.w3.org/2001/XMLSchema-instance" xsi:noNamespaceSchemaLocation="http://sumo.dlr.de/xsd/sumoConfiguration.xsd">

    <input>
        <net-file value="data/cross2x2.net.xml"/>
        <route-files value="data/cross2x2.rou.xml"/>
    </input>

    <output>
        <tripinfo-output value="data/out-tripinfo.xml"/>
    </output>

    <time>
        <begin value="0"/>
        <step-length value="0.2"/>
    </time>

    <processing>
        <collision.mingap-factor value="0"/>
    </processing>

    <report>
        <verbose value="true"/>
        <no-step-log value="true"/>
    </report>

    <traci_server>
        <remote-port value="60981"/>
    </traci_server>

    <gui_only>
        <tracker-interval value="0.2"/>
    </gui_only>

</configuration>
-->

<tripinfos xmlns:xsi="http://www.w3.org/2001/XMLSchema-instance" xsi:noNamespaceSchemaLocation="http://sumo.dlr.de/xsd/tripinfo_file.xsd">
</tripinfos>
