<?xml version="1.0" encoding="UTF-8"?>

<!-- generated on 2022-01-03 09:46:27 by Eclipse SUMO GUI Version 1.10.0
<configuration xmlns:xsi="http://www.w3.org/2001/XMLSchema-instance" xsi:noNamespaceSchemaLocation="http://sumo.dlr.de/xsd/sumoConfiguration.xsd">

    <input>
        <net-file value="data/ciudad2x2_semaforo.net.xml"/>
        <route-files value="data/ciudad2x2_semaforo.rou.xml"/>
    </input>

    <output>
        <tripinfo-output value="data/out-tripinfo.xml"/>
    </output>

    <time>
        <begin value="0"/>
        <step-length value="0.2"/>
    </time>

    <processing>
        <collision.mingap-factor value="0"/>
    </processing>

    <report>
        <verbose value="true"/>
        <no-step-log value="true"/>
    </report>

    <traci_server>
        <remote-port value="37575"/>
    </traci_server>

    <gui_only>
        <tracker-interval value="0.2"/>
    </gui_only>

</configuration>
-->

<tripinfos xmlns:xsi="http://www.w3.org/2001/XMLSchema-instance" xsi:noNamespaceSchemaLocation="http://sumo.dlr.de/xsd/tripinfo_file.xsd">
    <tripinfo id="up1_0" depart="0.00" departLane="12to7_0" departPos="5.10" departSpeed="16.67" departDelay="0.00" arrival="89.80" arrivalLane="outn1_0" arrivalPos="496.00" arrivalSpeed="16.67" duration="89.80" routeLength="1494.90" waitingTime="0.00" waitingCount="0" stopTime="0.00" timeLoss="0.08" rerouteNo="0" devices="tripinfo_up1_0" vType="Car@up1_0" speedFactor="1.06" vaporized=""/>
    <tripinfo id="right1_1" depart="2.00" departLane="1to2_0" departPos="5.10" departSpeed="16.67" departDelay="0.00" arrival="91.80" arrivalLane="outr1_0" arrivalPos="492.80" arrivalSpeed="16.67" duration="89.80" routeLength="1494.90" waitingTime="0.00" waitingCount="0" stopTime="0.00" timeLoss="0.00" rerouteNo="0" devices="tripinfo_right1_1" vType="Car@right1_1" speedFactor="0.94" vaporized=""/>
    <tripinfo id="down1_2" depart="3.00" departLane="9to2_0" departPos="5.10" departSpeed="16.67" departDelay="0.00" arrival="92.80" arrivalLane="outs1_0" arrivalPos="496.00" arrivalSpeed="16.67" duration="89.80" routeLength="1494.90" waitingTime="0.00" waitingCount="0" stopTime="0.00" timeLoss="0.08" rerouteNo="0" devices="tripinfo_down1_2" vType="Car@down1_2" speedFactor="1.01" vaporized=""/>
    <tripinfo id="right1_3" depart="8.00" departLane="1to2_0" departPos="5.10" departSpeed="16.67" departDelay="0.00" arrival="97.80" arrivalLane="outr1_0" arrivalPos="492.80" arrivalSpeed="16.67" duration="89.80" routeLength="1494.90" waitingTime="0.00" waitingCount="0" stopTime="0.00" timeLoss="0.01" rerouteNo="0" devices="tripinfo_right1_3" vType="Car@right1_3" speedFactor="1.08" vaporized=""/>
    <tripinfo id="left1_4" depart="8.00" departLane="8to7_0" departPos="5.10" departSpeed="16.67" departDelay="0.00" arrival="97.80" arrivalLane="outl1_0" arrivalPos="492.80" arrivalSpeed="16.67" duration="89.80" routeLength="1494.90" waitingTime="0.00" waitingCount="0" stopTime="0.00" timeLoss="0.00" rerouteNo="0" devices="tripinfo_left1_4" vType="Car@left1_4" speedFactor="1.03" vaporized=""/>
    <tripinfo id="left1_6" depart="9.60" departLane="8to7_0" departPos="5.10" departSpeed="16.67" departDelay="0.60" arrival="99.60" arrivalLane="outl1_0" arrivalPos="492.80" arrivalSpeed="16.64" duration="90.00" routeLength="1494.90" waitingTime="0.00" waitingCount="0" stopTime="0.00" timeLoss="0.24" rerouteNo="0" devices="tripinfo_left1_6" vType="Car@left1_6" speedFactor="1.05" vaporized=""/>
    <tripinfo id="right1_5" depart="9.40" departLane="1to2_0" departPos="5.10" departSpeed="16.16" departDelay="0.40" arrival="102.20" arrivalLane="outr1_0" arrivalPos="492.80" arrivalSpeed="16.15" duration="92.80" routeLength="1494.90" waitingTime="0.00" waitingCount="0" stopTime="0.00" timeLoss="0.11" rerouteNo="0" devices="tripinfo_right1_5" vType="Car@right1_5" speedFactor="0.83" vaporized=""/>
    <tripinfo id="up1_7" depart="12.00" departLane="12to7_0" departPos="5.10" departSpeed="16.67" departDelay="0.00" arrival="104.00" arrivalLane="outn1_0" arrivalPos="496.00" arrivalSpeed="16.65" duration="92.00" routeLength="1494.90" waitingTime="0.00" waitingCount="0" stopTime="0.00" timeLoss="2.33" rerouteNo="0" devices="tripinfo_up1_7" vType="Car@up1_7" speedFactor="0.89" vaporized=""/>
    <tripinfo id="left1_8" depart="15.00" departLane="8to7_0" departPos="5.10" departSpeed="16.67" departDelay="0.00" arrival="104.80" arrivalLane="outl1_0" arrivalPos="492.80" arrivalSpeed="16.67" duration="89.80" routeLength="1494.90" waitingTime="0.00" waitingCount="0" stopTime="0.00" timeLoss="0.02" rerouteNo="0" devices="tripinfo_left1_8" vType="Car@left1_8" speedFactor="0.94" vaporized=""/>
    <tripinfo id="right1_9" depart="16.00" departLane="1to2_0" departPos="5.10" departSpeed="16.66" departDelay="0.00" arrival="106.00" arrivalLane="outr1_0" arrivalPos="492.80" arrivalSpeed="16.65" duration="90.00" routeLength="1494.90" waitingTime="0.00" waitingCount="0" stopTime="0.00" timeLoss="0.13" rerouteNo="0" devices="tripinfo_right1_9" vType="Car@right1_9" speedFactor="0.86" vaporized=""/>
    <tripinfo id="down1_10" depart="17.00" departLane="9to2_0" departPos="5.10" departSpeed="16.67" departDelay="0.00" arrival="106.80" arrivalLane="outs1_0" arrivalPos="496.00" arrivalSpeed="16.67" duration="89.80" routeLength="1494.90" waitingTime="0.00" waitingCount="0" stopTime="0.00" timeLoss="0.09" rerouteNo="0" devices="tripinfo_down1_10" vType="Car@down1_10" speedFactor="1.09" vaporized=""/>
    <tripinfo id="left1_11" depart="21.00" departLane="8to7_0" departPos="5.10" departSpeed="16.67" departDelay="0.00" arrival="110.80" arrivalLane="outl1_0" arrivalPos="492.80" arrivalSpeed="16.67" duration="89.80" routeLength="1494.90" waitingTime="0.00" waitingCount="0" stopTime="0.00" timeLoss="0.02" rerouteNo="0" devices="tripinfo_left1_11" vType="Car@left1_11" speedFactor="1.03" vaporized=""/>
    <tripinfo id="down1_12" depart="22.00" departLane="9to2_0" departPos="5.10" departSpeed="16.67" departDelay="0.00" arrival="111.80" arrivalLane="outs1_0" arrivalPos="496.00" arrivalSpeed="16.67" duration="89.80" routeLength="1494.90" waitingTime="0.00" waitingCount="0" stopTime="0.00" timeLoss="0.11" rerouteNo="0" devices="tripinfo_down1_12" vType="Car@down1_12" speedFactor="1.05" vaporized=""/>
    <tripinfo id="up1_13" depart="22.00" departLane="12to7_0" departPos="5.10" departSpeed="16.67" departDelay="0.00" arrival="111.80" arrivalLane="outn1_0" arrivalPos="496.00" arrivalSpeed="16.67" duration="89.80" routeLength="1494.90" waitingTime="0.00" waitingCount="0" stopTime="0.00" timeLoss="0.12" rerouteNo="0" devices="tripinfo_up1_13" vType="Car@up1_13" speedFactor="1.12" vaporized=""/>
    <tripinfo id="down1_14" depart="28.00" departLane="9to2_0" departPos="5.10" departSpeed="16.67" departDelay="0.00" arrival="117.80" arrivalLane="outs1_0" arrivalPos="496.00" arrivalSpeed="16.67" duration="89.80" routeLength="1494.90" waitingTime="0.00" waitingCount="0" stopTime="0.00" timeLoss="0.09" rerouteNo="0" devices="tripinfo_down1_14" vType="Car@down1_14" speedFactor="0.99" vaporized=""/>
    <tripinfo id="right1_15" depart="30.00" departLane="1to2_0" departPos="5.10" departSpeed="16.67" departDelay="0.00" arrival="119.80" arrivalLane="outr1_0" arrivalPos="492.80" arrivalSpeed="16.67" duration="89.80" routeLength="1494.90" waitingTime="0.00" waitingCount="0" stopTime="0.00" timeLoss="0.01" rerouteNo="0" devices="tripinfo_right1_15" vType="Car@right1_15" speedFactor="0.93" vaporized=""/>
    <tripinfo id="left1_16" depart="33.00" departLane="8to7_0" departPos="5.10" departSpeed="16.67" departDelay="0.00" arrival="122.80" arrivalLane="outl1_0" arrivalPos="492.80" arrivalSpeed="16.67" duration="89.80" routeLength="1494.90" waitingTime="0.00" waitingCount="0" stopTime="0.00" timeLoss="0.00" rerouteNo="0" devices="tripinfo_left1_16" vType="Car@left1_16" speedFactor="0.88" vaporized=""/>
    <tripinfo id="right1_17" depart="34.00" departLane="1to2_0" departPos="5.10" departSpeed="16.67" departDelay="0.00" arrival="123.80" arrivalLane="outr1_0" arrivalPos="492.80" arrivalSpeed="16.67" duration="89.80" routeLength="1494.90" waitingTime="0.00" waitingCount="0" stopTime="0.00" timeLoss="0.04" rerouteNo="0" devices="tripinfo_right1_17" vType="Car@right1_17" speedFactor="0.94" vaporized=""/>
    <tripinfo id="left1_18" depart="37.00" departLane="8to7_0" departPos="5.10" departSpeed="16.67" departDelay="0.00" arrival="126.80" arrivalLane="outl1_0" arrivalPos="492.80" arrivalSpeed="16.67" duration="89.80" routeLength="1494.90" waitingTime="0.00" waitingCount="0" stopTime="0.00" timeLoss="0.03" rerouteNo="0" devices="tripinfo_left1_18" vType="Car@left1_18" speedFactor="0.94" vaporized=""/>
    <tripinfo id="left1_19" depart="38.60" departLane="8to7_0" departPos="5.10" departSpeed="16.67" departDelay="0.60" arrival="128.60" arrivalLane="outl1_0" arrivalPos="492.80" arrivalSpeed="16.64" duration="90.00" routeLength="1494.90" waitingTime="0.00" waitingCount="0" stopTime="0.00" timeLoss="0.25" rerouteNo="0" devices="tripinfo_left1_19" vType="Car@left1_19" speedFactor="1.16" vaporized=""/>
    <tripinfo id="up1_20" depart="39.00" departLane="12to7_0" departPos="5.10" departSpeed="16.67" departDelay="0.00" arrival="131.20" arrivalLane="outn1_0" arrivalPos="496.00" arrivalSpeed="16.67" duration="92.20" routeLength="1494.90" waitingTime="0.00" waitingCount="0" stopTime="0.00" timeLoss="2.39" rerouteNo="0" devices="tripinfo_up1_20" vType="Car@up1_20" speedFactor="1.02" vaporized=""/>
    <tripinfo id="right1_21" depart="46.00" departLane="1to2_0" departPos="5.10" departSpeed="16.67" departDelay="0.00" arrival="135.80" arrivalLane="outr1_0" arrivalPos="492.80" arrivalSpeed="16.67" duration="89.80" routeLength="1494.90" waitingTime="0.00" waitingCount="0" stopTime="0.00" timeLoss="0.00" rerouteNo="0" devices="tripinfo_right1_21" vType="Car@right1_21" speedFactor="1.01" vaporized=""/>
    <tripinfo id="right1_22" depart="48.00" departLane="1to2_0" departPos="5.10" departSpeed="16.67" departDelay="0.00" arrival="138.00" arrivalLane="outr1_0" arrivalPos="492.80" arrivalSpeed="16.65" duration="90.00" routeLength="1494.90" waitingTime="0.00" waitingCount="0" stopTime="0.00" timeLoss="0.15" rerouteNo="0" devices="tripinfo_right1_22" vType="Car@right1_22" speedFactor="0.98" vaporized=""/>
    <tripinfo id="right1_23" depart="54.00" departLane="1to2_0" departPos="5.10" departSpeed="16.67" departDelay="0.00" arrival="143.80" arrivalLane="outr1_0" arrivalPos="492.80" arrivalSpeed="16.67" duration="89.80" routeLength="1494.90" waitingTime="0.00" waitingCount="0" stopTime="0.00" timeLoss="0.02" rerouteNo="0" devices="tripinfo_right1_23" vType="Car@right1_23" speedFactor="0.89" vaporized=""/>
    <tripinfo id="down1_25" depart="57.00" departLane="9to2_0" departPos="5.10" departSpeed="16.67" departDelay="0.00" arrival="146.80" arrivalLane="outs1_0" arrivalPos="496.00" arrivalSpeed="16.67" duration="89.80" routeLength="1494.90" waitingTime="0.00" waitingCount="0" stopTime="0.00" timeLoss="0.08" rerouteNo="0" devices="tripinfo_down1_25" vType="Car@down1_25" speedFactor="0.87" vaporized=""/>
    <tripinfo id="left1_24" depart="55.00" departLane="8to7_0" departPos="5.10" departSpeed="16.05" departDelay="0.00" arrival="151.60" arrivalLane="outl1_0" arrivalPos="492.80" arrivalSpeed="16.04" duration="96.60" routeLength="1494.90" waitingTime="0.00" waitingCount="0" stopTime="0.00" timeLoss="3.38" rerouteNo="0" devices="tripinfo_left1_24" vType="Car@left1_24" speedFactor="0.83" vaporized=""/>
    <tripinfo id="right1_26_flaw" depart="62.00" departLane="1to2_0" departPos="5.10" departSpeed="16.67" departDelay="0.00" arrival="151.80" arrivalLane="outr1_0" arrivalPos="492.80" arrivalSpeed="16.67" duration="89.80" routeLength="1494.90" waitingTime="0.00" waitingCount="0" stopTime="0.00" timeLoss="0.01" rerouteNo="0" devices="tripinfo_right1_26_flaw" vType="Car@right1_26_flaw" speedFactor="0.92" vaporized=""/>
    <tripinfo id="down1_27" depart="63.00" departLane="9to2_0" departPos="5.10" departSpeed="16.67" departDelay="0.00" arrival="153.00" arrivalLane="outs1_0" arrivalPos="496.00" arrivalSpeed="16.67" duration="90.00" routeLength="1494.90" waitingTime="0.00" waitingCount="0" stopTime="0.00" timeLoss="0.15" rerouteNo="0" devices="tripinfo_down1_27" vType="Car@down1_27" speedFactor="0.95" vaporized=""/>
    <tripinfo id="right1_28" depart="66.00" departLane="1to2_0" departPos="5.10" departSpeed="16.67" departDelay="0.00" arrival="155.80" arrivalLane="outr1_0" arrivalPos="492.80" arrivalSpeed="16.67" duration="89.80" routeLength="1494.90" waitingTime="0.00" waitingCount="0" stopTime="0.00" timeLoss="0.04" rerouteNo="0" devices="tripinfo_right1_28" vType="Car@right1_28" speedFactor="1.13" vaporized=""/>
    <tripinfo id="right1_29" depart="69.00" departLane="1to2_0" departPos="5.10" departSpeed="16.67" departDelay="0.00" arrival="158.80" arrivalLane="outr1_0" arrivalPos="492.80" arrivalSpeed="16.66" duration="89.80" routeLength="1494.90" waitingTime="0.00" waitingCount="0" stopTime="0.00" timeLoss="0.06" rerouteNo="0" devices="tripinfo_right1_29" vType="Car@right1_29" speedFactor="0.93" vaporized=""/>
    <tripinfo id="left1_30" depart="69.00" departLane="8to7_0" departPos="5.10" departSpeed="16.67" departDelay="0.00" arrival="158.80" arrivalLane="outl1_0" arrivalPos="492.80" arrivalSpeed="16.67" duration="89.80" routeLength="1494.90" waitingTime="0.00" waitingCount="0" stopTime="0.00" timeLoss="0.08" rerouteNo="0" devices="tripinfo_left1_30" vType="Car@left1_30" speedFactor="1.18" vaporized=""/>
    <tripinfo id="down1_31" depart="70.00" departLane="9to2_0" departPos="5.10" departSpeed="16.67" departDelay="0.00" arrival="160.00" arrivalLane="outs1_0" arrivalPos="496.00" arrivalSpeed="16.67" duration="90.00" routeLength="1494.90" waitingTime="0.00" waitingCount="0" stopTime="0.00" timeLoss="0.14" rerouteNo="0" devices="tripinfo_down1_31" vType="Car@down1_31" speedFactor="1.15" vaporized=""/>
    <tripinfo id="left1_32" depart="71.00" departLane="8to7_0" departPos="5.10" departSpeed="16.67" departDelay="0.00" arrival="161.00" arrivalLane="outl1_0" arrivalPos="492.80" arrivalSpeed="16.65" duration="90.00" routeLength="1494.90" waitingTime="0.00" waitingCount="0" stopTime="0.00" timeLoss="0.19" rerouteNo="0" devices="tripinfo_left1_32" vType="Car@left1_32" speedFactor="1.01" vaporized=""/>
    <tripinfo id="left1_33" depart="75.00" departLane="8to7_0" departPos="5.10" departSpeed="16.67" departDelay="0.00" arrival="164.80" arrivalLane="outl1_0" arrivalPos="492.80" arrivalSpeed="16.67" duration="89.80" routeLength="1494.90" waitingTime="0.00" waitingCount="0" stopTime="0.00" timeLoss="0.06" rerouteNo="0" devices="tripinfo_left1_33" vType="Car@left1_33" speedFactor="1.17" vaporized=""/>
    <tripinfo id="right1_34" depart="76.00" departLane="1to2_0" departPos="5.10" departSpeed="16.67" departDelay="0.00" arrival="165.80" arrivalLane="outr1_0" arrivalPos="492.80" arrivalSpeed="16.67" duration="89.80" routeLength="1494.90" waitingTime="0.00" waitingCount="0" stopTime="0.00" timeLoss="0.01" rerouteNo="0" devices="tripinfo_right1_34" vType="Car@right1_34" speedFactor="0.99" vaporized=""/>
    <tripinfo id="up1_36" depart="78.00" departLane="12to7_0" departPos="5.10" departSpeed="16.67" departDelay="0.00" arrival="167.80" arrivalLane="outn1_0" arrivalPos="496.00" arrivalSpeed="16.67" duration="89.80" routeLength="1494.90" waitingTime="0.00" waitingCount="0" stopTime="0.00" timeLoss="0.08" rerouteNo="0" devices="tripinfo_up1_36" vType="Car@up1_36" speedFactor="0.97" vaporized=""/>
    <tripinfo id="right1_35" depart="77.60" departLane="1to2_0" departPos="5.10" departSpeed="16.67" departDelay="0.60" arrival="168.20" arrivalLane="outr1_0" arrivalPos="492.80" arrivalSpeed="16.65" duration="90.60" routeLength="1494.90" waitingTime="0.00" waitingCount="0" stopTime="0.00" timeLoss="0.83" rerouteNo="0" devices="tripinfo_right1_35" vType="Car@right1_35" speedFactor="1.02" vaporized=""/>
    <tripinfo id="right1_37" depart="84.00" departLane="1to2_0" departPos="5.10" departSpeed="16.67" departDelay="0.00" arrival="173.80" arrivalLane="outr1_0" arrivalPos="492.80" arrivalSpeed="16.67" duration="89.80" routeLength="1494.90" waitingTime="0.00" waitingCount="0" stopTime="0.00" timeLoss="0.03" rerouteNo="0" devices="tripinfo_right1_37" vType="Car@right1_37" speedFactor="1.18" vaporized=""/>
    <tripinfo id="down1_38" depart="84.00" departLane="9to2_0" departPos="5.10" departSpeed="16.67" departDelay="0.00" arrival="176.20" arrivalLane="outs1_0" arrivalPos="496.00" arrivalSpeed="16.67" duration="92.20" routeLength="1494.90" waitingTime="0.00" waitingCount="0" stopTime="0.00" timeLoss="2.34" rerouteNo="0" devices="tripinfo_down1_38" vType="Car@down1_38" speedFactor="1.10" vaporized=""/>
    <tripinfo id="up1_39" depart="87.00" departLane="12to7_0" departPos="5.10" departSpeed="16.67" departDelay="0.00" arrival="176.80" arrivalLane="outn1_0" arrivalPos="496.00" arrivalSpeed="16.67" duration="89.80" routeLength="1494.90" waitingTime="0.00" waitingCount="0" stopTime="0.00" timeLoss="0.08" rerouteNo="0" devices="tripinfo_up1_39" vType="Car@up1_39" speedFactor="0.90" vaporized=""/>
    <tripinfo id="left1_40" depart="91.00" departLane="8to7_0" departPos="5.10" departSpeed="16.67" departDelay="0.00" arrival="180.80" arrivalLane="outl1_0" arrivalPos="492.80" arrivalSpeed="16.67" duration="89.80" routeLength="1494.90" waitingTime="0.00" waitingCount="0" stopTime="0.00" timeLoss="0.01" rerouteNo="0" devices="tripinfo_left1_40" vType="Car@left1_40" speedFactor="1.03" vaporized=""/>
    <tripinfo id="left1_41" depart="96.00" departLane="8to7_0" departPos="5.10" departSpeed="16.67" departDelay="0.00" arrival="185.80" arrivalLane="outl1_0" arrivalPos="492.80" arrivalSpeed="16.67" duration="89.80" routeLength="1494.90" waitingTime="0.00" waitingCount="0" stopTime="0.00" timeLoss="0.02" rerouteNo="0" devices="tripinfo_left1_41" vType="Car@left1_41" speedFactor="0.96" vaporized=""/>
    <tripinfo id="down1_42" depart="100.00" departLane="9to2_0" departPos="5.10" departSpeed="16.67" departDelay="0.00" arrival="189.80" arrivalLane="outs1_0" arrivalPos="496.00" arrivalSpeed="16.67" duration="89.80" routeLength="1494.90" waitingTime="0.00" waitingCount="0" stopTime="0.00" timeLoss="0.08" rerouteNo="0" devices="tripinfo_down1_42" vType="Car@down1_42" speedFactor="1.09" vaporized=""/>
    <tripinfo id="left1_43" depart="100.00" departLane="8to7_0" departPos="5.10" departSpeed="16.67" departDelay="0.00" arrival="191.20" arrivalLane="outl1_0" arrivalPos="492.80" arrivalSpeed="16.66" duration="91.20" routeLength="1494.90" waitingTime="0.00" waitingCount="0" stopTime="0.00" timeLoss="1.39" rerouteNo="0" devices="tripinfo_left1_43" vType="Car@left1_43" speedFactor="1.04" vaporized=""/>
    <tripinfo id="down1_44" depart="103.00" departLane="9to2_0" departPos="5.10" departSpeed="16.67" departDelay="0.00" arrival="193.00" arrivalLane="outs1_0" arrivalPos="496.00" arrivalSpeed="16.66" duration="90.00" routeLength="1494.90" waitingTime="0.00" waitingCount="0" stopTime="0.00" timeLoss="0.15" rerouteNo="0" devices="tripinfo_down1_44" vType="Car@down1_44" speedFactor="1.04" vaporized=""/>
    <tripinfo id="left1_45" depart="104.00" departLane="8to7_0" departPos="5.10" departSpeed="16.67" departDelay="0.00" arrival="194.00" arrivalLane="outl1_0" arrivalPos="492.80" arrivalSpeed="16.66" duration="90.00" routeLength="1494.90" waitingTime="0.00" waitingCount="0" stopTime="0.00" timeLoss="0.16" rerouteNo="0" devices="tripinfo_left1_45" vType="Car@left1_45" speedFactor="1.09" vaporized=""/>
    <tripinfo id="right1_46" depart="108.00" departLane="1to2_0" departPos="5.10" departSpeed="16.67" departDelay="0.00" arrival="197.80" arrivalLane="outr1_0" arrivalPos="492.80" arrivalSpeed="16.67" duration="89.80" routeLength="1494.90" waitingTime="0.00" waitingCount="0" stopTime="0.00" timeLoss="0.00" rerouteNo="0" devices="tripinfo_right1_46" vType="Car@right1_46" speedFactor="1.00" vaporized=""/>
    <tripinfo id="left1_47" depart="110.00" departLane="8to7_0" departPos="5.10" departSpeed="16.67" departDelay="0.00" arrival="199.80" arrivalLane="outl1_0" arrivalPos="492.80" arrivalSpeed="16.67" duration="89.80" routeLength="1494.90" waitingTime="0.00" waitingCount="0" stopTime="0.00" timeLoss="0.03" rerouteNo="0" devices="tripinfo_left1_47" vType="Car@left1_47" speedFactor="0.90" vaporized=""/>
    <tripinfo id="up1_48" depart="112.00" departLane="12to7_0" departPos="5.10" departSpeed="16.67" departDelay="0.00" arrival="201.80" arrivalLane="outn1_0" arrivalPos="496.00" arrivalSpeed="16.67" duration="89.80" routeLength="1494.90" waitingTime="0.00" waitingCount="0" stopTime="0.00" timeLoss="0.08" rerouteNo="0" devices="tripinfo_up1_48" vType="Car@up1_48" speedFactor="0.88" vaporized=""/>
    <tripinfo id="left1_50" depart="113.00" departLane="8to7_0" departPos="5.10" departSpeed="16.62" departDelay="0.00" arrival="203.20" arrivalLane="outl1_0" arrivalPos="492.80" arrivalSpeed="16.61" duration="90.20" routeLength="1494.90" waitingTime="0.00" waitingCount="0" stopTime="0.00" timeLoss="0.10" rerouteNo="0" devices="tripinfo_left1_50" vType="Car@left1_50" speedFactor="0.85" vaporized=""/>
    <tripinfo id="down1_49" depart="113.00" departLane="9to2_0" departPos="5.10" departSpeed="16.53" departDelay="0.00" arrival="205.00" arrivalLane="outs1_0" arrivalPos="496.00" arrivalSpeed="16.52" duration="92.00" routeLength="1494.90" waitingTime="0.00" waitingCount="0" stopTime="0.00" timeLoss="1.44" rerouteNo="0" devices="tripinfo_down1_49" vType="Car@down1_49" speedFactor="0.85" vaporized=""/>
    <tripinfo id="left1_51" depart="118.00" departLane="8to7_0" departPos="5.10" departSpeed="16.67" departDelay="0.00" arrival="207.80" arrivalLane="outl1_0" arrivalPos="492.80" arrivalSpeed="16.67" duration="89.80" routeLength="1494.90" waitingTime="0.00" waitingCount="0" stopTime="0.00" timeLoss="0.04" rerouteNo="0" devices="tripinfo_left1_51" vType="Car@left1_51" speedFactor="1.17" vaporized=""/>
    <tripinfo id="left1_52" depart="119.60" departLane="8to7_0" departPos="5.10" departSpeed="16.67" departDelay="0.60" arrival="209.60" arrivalLane="outl1_0" arrivalPos="492.80" arrivalSpeed="16.64" duration="90.00" routeLength="1494.90" waitingTime="0.00" waitingCount="0" stopTime="0.00" timeLoss="0.25" rerouteNo="0" devices="tripinfo_left1_52" vType="Car@left1_52" speedFactor="1.02" vaporized=""/>
    <tripinfo id="up1_53" depart="120.00" departLane="12to7_0" departPos="5.10" departSpeed="16.67" departDelay="0.00" arrival="212.20" arrivalLane="outn1_0" arrivalPos="496.00" arrivalSpeed="16.67" duration="92.20" routeLength="1494.90" waitingTime="0.00" waitingCount="0" stopTime="0.00" timeLoss="2.39" rerouteNo="0" devices="tripinfo_up1_53" vType="Car@up1_53" speedFactor="1.10" vaporized=""/>
    <tripinfo id="down1_54" depart="129.00" departLane="9to2_0" departPos="5.10" departSpeed="16.67" departDelay="0.00" arrival="218.80" arrivalLane="outs1_0" arrivalPos="496.00" arrivalSpeed="16.67" duration="89.80" routeLength="1494.90" waitingTime="0.00" waitingCount="0" stopTime="0.00" timeLoss="0.08" rerouteNo="0" devices="tripinfo_down1_54" vType="Car@down1_54" speedFactor="1.00" vaporized=""/>
    <tripinfo id="up1_55" depart="131.00" departLane="12to7_0" departPos="5.10" departSpeed="16.67" departDelay="0.00" arrival="220.80" arrivalLane="outn1_0" arrivalPos="496.00" arrivalSpeed="16.67" duration="89.80" routeLength="1494.90" waitingTime="0.00" waitingCount="0" stopTime="0.00" timeLoss="0.09" rerouteNo="0" devices="tripinfo_up1_55" vType="Car@up1_55" speedFactor="1.00" vaporized=""/>
    <tripinfo id="right1_56" depart="132.00" departLane="1to2_0" departPos="5.10" departSpeed="16.67" departDelay="0.00" arrival="221.80" arrivalLane="outr1_0" arrivalPos="492.80" arrivalSpeed="16.67" duration="89.80" routeLength="1494.90" waitingTime="0.00" waitingCount="0" stopTime="0.00" timeLoss="0.01" rerouteNo="0" devices="tripinfo_right1_56" vType="Car@right1_56" speedFactor="0.90" vaporized=""/>
    <tripinfo id="left1_58" depart="132.00" departLane="8to7_0" departPos="5.10" departSpeed="16.67" departDelay="0.00" arrival="221.80" arrivalLane="outl1_0" arrivalPos="492.80" arrivalSpeed="16.67" duration="89.80" routeLength="1494.90" waitingTime="0.00" waitingCount="0" stopTime="0.00" timeLoss="0.08" rerouteNo="0" devices="tripinfo_left1_58" vType="Car@left1_58" speedFactor="1.02" vaporized=""/>
    <tripinfo id="down1_57" depart="132.00" departLane="9to2_0" departPos="5.10" departSpeed="16.67" departDelay="0.00" arrival="224.20" arrivalLane="outs1_0" arrivalPos="496.00" arrivalSpeed="16.67" duration="92.20" routeLength="1494.90" waitingTime="0.00" waitingCount="0" stopTime="0.00" timeLoss="2.36" rerouteNo="0" devices="tripinfo_down1_57" vType="Car@down1_57" speedFactor="1.14" vaporized=""/>
    <tripinfo id="right1_59" depart="142.00" departLane="1to2_0" departPos="5.10" departSpeed="16.67" departDelay="0.00" arrival="231.80" arrivalLane="outr1_0" arrivalPos="492.80" arrivalSpeed="16.67" duration="89.80" routeLength="1494.90" waitingTime="0.00" waitingCount="0" stopTime="0.00" timeLoss="0.01" rerouteNo="0" devices="tripinfo_right1_59" vType="Car@right1_59" speedFactor="0.97" vaporized=""/>
    <tripinfo id="left1_61" depart="143.00" departLane="8to7_0" departPos="5.10" departSpeed="16.67" departDelay="0.00" arrival="232.80" arrivalLane="outl1_0" arrivalPos="492.80" arrivalSpeed="16.67" duration="89.80" routeLength="1494.90" waitingTime="0.00" waitingCount="0" stopTime="0.00" timeLoss="0.01" rerouteNo="0" devices="tripinfo_left1_61" vType="Car@left1_61" speedFactor="1.12" vaporized=""/>
    <tripinfo id="down1_62" depart="144.00" departLane="9to2_0" departPos="5.10" departSpeed="16.67" departDelay="0.00" arrival="233.80" arrivalLane="outs1_0" arrivalPos="496.00" arrivalSpeed="16.67" duration="89.80" routeLength="1494.90" waitingTime="0.00" waitingCount="0" stopTime="0.00" timeLoss="0.11" rerouteNo="0" devices="tripinfo_down1_62" vType="Car@down1_62" speedFactor="1.02" vaporized=""/>
    <tripinfo id="up1_60" depart="143.00" departLane="12to7_0" departPos="5.10" departSpeed="16.67" departDelay="0.00" arrival="235.20" arrivalLane="outn1_0" arrivalPos="496.00" arrivalSpeed="16.67" duration="92.20" routeLength="1494.90" waitingTime="0.00" waitingCount="0" stopTime="0.00" timeLoss="2.34" rerouteNo="0" devices="tripinfo_up1_60" vType="Car@up1_60" speedFactor="1.08" vaporized=""/>
    <tripinfo id="left1_63" depart="145.00" departLane="8to7_0" departPos="5.10" departSpeed="16.67" departDelay="0.00" arrival="235.20" arrivalLane="outl1_0" arrivalPos="492.80" arrivalSpeed="16.66" duration="90.20" routeLength="1494.90" waitingTime="0.00" waitingCount="0" stopTime="0.00" timeLoss="0.43" rerouteNo="0" devices="tripinfo_left1_63" vType="Car@left1_63" speedFactor="0.99" vaporized=""/>
    <tripinfo id="up1_64" depart="146.00" departLane="12to7_0" departPos="5.10" departSpeed="16.67" departDelay="0.00" arrival="236.60" arrivalLane="outn1_0" arrivalPos="496.00" arrivalSpeed="16.62" duration="90.60" routeLength="1494.90" waitingTime="0.00" waitingCount="0" stopTime="0.00" timeLoss="0.87" rerouteNo="0" devices="tripinfo_up1_64" vType="Car@up1_64" speedFactor="0.94" vaporized=""/>
    <tripinfo id="left1_65" depart="147.00" departLane="8to7_0" departPos="5.10" departSpeed="16.67" departDelay="0.00" arrival="237.20" arrivalLane="outl1_0" arrivalPos="492.80" arrivalSpeed="16.65" duration="90.20" routeLength="1494.90" waitingTime="0.00" waitingCount="0" stopTime="0.00" timeLoss="0.38" rerouteNo="0" devices="tripinfo_left1_65" vType="Car@left1_65" speedFactor="0.88" vaporized=""/>
    <tripinfo id="right1_66" depart="150.00" departLane="1to2_0" departPos="5.10" departSpeed="16.67" departDelay="0.00" arrival="239.80" arrivalLane="outr1_0" arrivalPos="492.80" arrivalSpeed="16.67" duration="89.80" routeLength="1494.90" waitingTime="0.00" waitingCount="0" stopTime="0.00" timeLoss="0.01" rerouteNo="0" devices="tripinfo_right1_66" vType="Car@right1_66" speedFactor="0.91" vaporized=""/>
    <tripinfo id="left1_67" depart="153.00" departLane="8to7_0" departPos="5.10" departSpeed="16.67" departDelay="0.00" arrival="242.80" arrivalLane="outl1_0" arrivalPos="492.80" arrivalSpeed="16.67" duration="89.80" routeLength="1494.90" waitingTime="0.00" waitingCount="0" stopTime="0.00" timeLoss="0.03" rerouteNo="0" devices="tripinfo_left1_67" vType="Car@left1_67" speedFactor="0.91" vaporized=""/>
    <tripinfo id="down1_68" depart="154.00" departLane="9to2_0" departPos="5.10" departSpeed="16.67" departDelay="0.00" arrival="243.80" arrivalLane="outs1_0" arrivalPos="496.00" arrivalSpeed="16.67" duration="89.80" routeLength="1494.90" waitingTime="0.00" waitingCount="0" stopTime="0.00" timeLoss="0.10" rerouteNo="0" devices="tripinfo_down1_68" vType="Car@down1_68" speedFactor="1.04" vaporized=""/>
    <tripinfo id="up1_69" depart="154.00" departLane="12to7_0" departPos="5.10" departSpeed="16.67" departDelay="0.00" arrival="243.80" arrivalLane="outn1_0" arrivalPos="496.00" arrivalSpeed="16.67" duration="89.80" routeLength="1494.90" waitingTime="0.00" waitingCount="0" stopTime="0.00" timeLoss="0.10" rerouteNo="0" devices="tripinfo_up1_69" vType="Car@up1_69" speedFactor="1.02" vaporized=""/>
    <tripinfo id="down1_70" depart="155.60" departLane="9to2_0" departPos="5.10" departSpeed="16.67" departDelay="0.60" arrival="245.60" arrivalLane="outs1_0" arrivalPos="496.00" arrivalSpeed="16.64" duration="90.00" routeLength="1494.90" waitingTime="0.00" waitingCount="0" stopTime="0.00" timeLoss="0.27" rerouteNo="0" devices="tripinfo_down1_70" vType="Car@down1_70" speedFactor="1.02" vaporized=""/>