<?xml version="1.0" encoding="UTF-8"?>

<!-- generated on Fri Feb 18 09:17:09 2022 by Eclipse SUMO GUI Version 1.6.0
<configuration xmlns:xsi="http://www.w3.org/2001/XMLSchema-instance" xsi:noNamespaceSchemaLocation="http://sumo.dlr.de/xsd/sumoConfiguration.xsd">

    <input>
        <net-file value="data/cross4x4.net.xml"/>
        <route-files value="data/cross4x4.rou.xml"/>
    </input>

    <output>
        <tripinfo-output value="data/out-tripinfo.xml"/>
    </output>

    <time>
        <begin value="0"/>
        <step-length value="0.2"/>
    </time>

    <processing>
        <collision.mingap-factor value="0"/>
    </processing>

    <report>
        <verbose value="true"/>
        <no-step-log value="true"/>
    </report>

    <traci_server>
        <remote-port value="62016"/>
    </traci_server>

    <gui_only>
        <tracker-interval value="0.2"/>
    </gui_only>

</configuration>
-->

<tripinfos xmlns:xsi="http://www.w3.org/2001/XMLSchema-instance" xsi:noNamespaceSchemaLocation="http://sumo.dlr.de/xsd/tripinfo_file.xsd">
    <tripinfo id="right2_1" depart="0.00" departLane="13to14_0" departPos="5.10" departSpeed="16.67" departDelay="0.00" arrival="149.80" arrivalLane="outr2_0" arrivalPos="492.80" arrivalSpeed="16.67" duration="149.80" routeLength="2494.90" waitingTime="0.00" waitingCount="0" stopTime="0.00" timeLoss="0.08" rerouteNo="0" devices="tripinfo_right2_1" vType="Car@right2_1" speedFactor="0.94" vaporized=""/>
    <tripinfo id="left2_4" depart="0.00" departLane="24to23_0" departPos="5.10" departSpeed="16.67" departDelay="0.00" arrival="149.80" arrivalLane="outl2_0" arrivalPos="492.80" arrivalSpeed="16.67" duration="149.80" routeLength="2494.90" waitingTime="0.00" waitingCount="0" stopTime="0.00" timeLoss="0.08" rerouteNo="0" devices="tripinfo_left2_4" vType="Car@left2_4" speedFactor="1.03" vaporized=""/>
    <tripinfo id="left2_9" depart="1.60" departLane="24to23_0" departPos="5.10" departSpeed="16.66" departDelay="0.60" arrival="151.80" arrivalLane="outl2_0" arrivalPos="492.80" arrivalSpeed="16.64" duration="150.20" routeLength="2494.90" waitingTime="0.00" waitingCount="0" stopTime="0.00" timeLoss="0.38" rerouteNo="0" devices="tripinfo_left2_9" vType="Car@left2_9" speedFactor="0.86" vaporized=""/>
    <tripinfo id="right2_11" depart="2.00" departLane="13to14_0" departPos="5.10" departSpeed="16.67" departDelay="0.00" arrival="152.00" arrivalLane="outr2_0" arrivalPos="492.80" arrivalSpeed="16.65" duration="150.00" routeLength="2494.90" waitingTime="0.00" waitingCount="0" stopTime="0.00" timeLoss="0.28" rerouteNo="0" devices="tripinfo_right2_11" vType="Car@right2_11" speedFactor="1.03" vaporized=""/>
    <tripinfo id="left2_19" depart="3.20" departLane="24to23_0" departPos="5.10" departSpeed="16.67" departDelay="0.20" arrival="153.40" arrivalLane="outl2_0" arrivalPos="492.80" arrivalSpeed="16.63" duration="150.20" routeLength="2494.90" waitingTime="0.00" waitingCount="0" stopTime="0.00" timeLoss="0.50" rerouteNo="0" devices="tripinfo_left2_19" vType="Car@left2_19" speedFactor="1.16" vaporized=""/>
    <tripinfo id="left2_26" depart="4.80" departLane="24to23_0" departPos="5.10" departSpeed="16.67" departDelay="0.80" arrival="155.00" arrivalLane="outl2_0" arrivalPos="492.80" arrivalSpeed="16.63" duration="150.20" routeLength="2494.90" waitingTime="0.00" waitingCount="0" stopTime="0.00" timeLoss="0.50" rerouteNo="0" devices="tripinfo_left2_26" vType="Car@left2_26" speedFactor="0.92" vaporized=""/>
    <tripinfo id="right2_28" depart="5.00" departLane="13to14_0" departPos="5.10" departSpeed="16.67" departDelay="0.00" arrival="155.00" arrivalLane="outr2_0" arrivalPos="492.80" arrivalSpeed="16.66" duration="150.00" routeLength="2494.90" waitingTime="0.00" waitingCount="0" stopTime="0.00" timeLoss="0.17" rerouteNo="0" devices="tripinfo_right2_28" vType="Car@right2_28" speedFactor="1.13" vaporized=""/>
    <tripinfo id="right2_36" depart="6.60" departLane="13to14_0" departPos="5.10" departSpeed="16.67" departDelay="0.60" arrival="156.80" arrivalLane="outr2_0" arrivalPos="492.80" arrivalSpeed="16.64" duration="150.20" routeLength="2494.90" waitingTime="0.00" waitingCount="0" stopTime="0.00" timeLoss="0.42" rerouteNo="0" devices="tripinfo_right2_36" vType="Car@right2_36" speedFactor="0.97" vaporized=""/>
    <tripinfo id="right2_48" depart="8.20" departLane="13to14_0" departPos="5.10" departSpeed="16.67" departDelay="0.20" arrival="158.40" arrivalLane="outr2_0" arrivalPos="492.80" arrivalSpeed="16.63" duration="150.20" routeLength="2494.90" waitingTime="0.00" waitingCount="0" stopTime="0.00" timeLoss="0.48" rerouteNo="0" devices="tripinfo_right2_48" vType="Car@right2_48" speedFactor="0.88" vaporized=""/>
    <tripinfo id="right2_59" depart="10.00" departLane="13to14_0" departPos="5.10" departSpeed="16.67" departDelay="0.00" arrival="160.20" arrivalLane="outr2_0" arrivalPos="492.80" arrivalSpeed="16.64" duration="150.20" routeLength="2494.90" waitingTime="0.00" waitingCount="0" stopTime="0.00" timeLoss="0.41" rerouteNo="0" devices="tripinfo_right2_59" vType="Car@right2_59" speedFactor="0.97" vaporized=""/>
    <tripinfo id="down2_6" depart="1.00" departLane="29to4_0" departPos="5.10" departSpeed="16.67" departDelay="0.00" arrival="172.00" arrivalLane="outs2_0" arrivalPos="496.00" arrivalSpeed="16.67" duration="171.00" routeLength="2494.90" waitingTime="0.40" waitingCount="1" stopTime="7.40" timeLoss="13.86" rerouteNo="0" devices="tripinfo_down2_6" vType="Car@down2_6" speedFactor="1.05" vaporized=""/>
    <tripinfo id="up1_7" depart="1.00" departLane="28to21_0" departPos="5.10" departSpeed="16.67" departDelay="0.00" arrival="172.20" arrivalLane="outn1_0" arrivalPos="496.00" arrivalSpeed="16.67" duration="171.20" routeLength="2494.90" waitingTime="0.60" waitingCount="1" stopTime="7.40" timeLoss="14.10" rerouteNo="0" devices="tripinfo_up1_7" vType="Car@up1_7" speedFactor="0.89" vaporized=""/>
    <tripinfo id="down2_13" depart="2.60" departLane="29to4_0" departPos="5.10" departSpeed="16.67" departDelay="0.60" arrival="175.20" arrivalLane="outs2_0" arrivalPos="496.00" arrivalSpeed="16.66" duration="172.60" routeLength="2494.90" waitingTime="8.80" waitingCount="1" stopTime="0.00" timeLoss="22.78" rerouteNo="0" devices="tripinfo_down2_13" vType="Car@down2_13" speedFactor="1.12" vaporized=""/>
    <tripinfo id="up1_14" depart="2.60" departLane="28to21_0" departPos="5.10" departSpeed="16.67" departDelay="0.60" arrival="175.40" arrivalLane="outn1_0" arrivalPos="496.00" arrivalSpeed="16.66" duration="172.80" routeLength="2494.90" waitingTime="9.20" waitingCount="1" stopTime="0.00" timeLoss="23.10" rerouteNo="0" devices="tripinfo_up1_14" vType="Car@up1_14" speedFactor="0.99" vaporized=""/>
    <tripinfo id="down2_22" depart="4.20" departLane="29to4_0" departPos="5.10" departSpeed="16.67" departDelay="0.20" arrival="177.80" arrivalLane="outs2_0" arrivalPos="496.00" arrivalSpeed="16.66" duration="173.60" routeLength="2494.90" waitingTime="9.60" waitingCount="1" stopTime="0.00" timeLoss="23.81" rerouteNo="0" devices="tripinfo_down2_22" vType="Car@down2_22" speedFactor="0.98" vaporized=""/>
    <tripinfo id="up1_23" depart="4.20" departLane="28to21_0" departPos="5.10" departSpeed="16.67" departDelay="0.20" arrival="178.20" arrivalLane="outn1_0" arrivalPos="496.00" arrivalSpeed="16.66" duration="174.00" routeLength="2494.90" waitingTime="10.20" waitingCount="1" stopTime="0.00" timeLoss="24.20" rerouteNo="0" devices="tripinfo_up1_23" vType="Car@up1_23" speedFactor="0.89" vaporized=""/>
    <tripinfo id="right1_0" depart="0.00" departLane="1to2_0" departPos="5.10" departSpeed="16.67" departDelay="0.00" arrival="179.40" arrivalLane="outr1_0" arrivalPos="492.80" arrivalSpeed="16.67" duration="179.40" routeLength="2494.90" waitingTime="0.60" waitingCount="1" stopTime="15.60" timeLoss="14.04" rerouteNo="0" devices="tripinfo_right1_0" vType="Car@right1_0" speedFactor="1.06" vaporized=""/>
    <tripinfo id="down2_30" depart="5.80" departLane="29to4_0" departPos="5.10" departSpeed="16.67" departDelay="0.80" arrival="180.40" arrivalLane="outs2_0" arrivalPos="496.00" arrivalSpeed="16.66" duration="174.60" routeLength="2494.90" waitingTime="10.60" waitingCount="1" stopTime="0.00" timeLoss="24.83" rerouteNo="0" devices="tripinfo_down2_30" vType="Car@down2_30" speedFactor="1.18" vaporized=""/>
    <tripinfo id="up1_31" depart="5.80" departLane="28to21_0" departPos="5.10" departSpeed="16.67" departDelay="0.80" arrival="180.80" arrivalLane="outn1_0" arrivalPos="496.00" arrivalSpeed="16.66" duration="175.00" routeLength="2494.90" waitingTime="11.00" waitingCount="1" stopTime="0.00" timeLoss="25.15" rerouteNo="0" devices="tripinfo_up1_31" vType="Car@up1_31" speedFactor="1.15" vaporized=""/>
    <tripinfo id="right1_10" depart="2.00" departLane="1to2_0" departPos="5.10" departSpeed="16.67" departDelay="0.00" arrival="182.40" arrivalLane="outr1_0" arrivalPos="492.80" arrivalSpeed="16.66" duration="180.40" routeLength="2494.90" waitingTime="16.80" waitingCount="1" stopTime="0.00" timeLoss="30.72" rerouteNo="0" devices="tripinfo_right1_10" vType="Car@right1_10" speedFactor="1.09" vaporized=""/>
    <tripinfo id="down2_38" depart="7.40" departLane="29to4_0" departPos="5.10" departSpeed="16.67" departDelay="1.40" arrival="183.00" arrivalLane="outs2_0" arrivalPos="496.00" arrivalSpeed="16.66" duration="175.60" routeLength="2494.90" waitingTime="11.80" waitingCount="1" stopTime="0.00" timeLoss="25.86" rerouteNo="0" devices="tripinfo_down2_38" vType="Car@down2_38" speedFactor="1.10" vaporized=""/>
    <tripinfo id="up1_39" depart="7.40" departLane="28to21_0" departPos="5.10" departSpeed="16.67" departDelay="1.40" arrival="183.20" arrivalLane="outn1_0" arrivalPos="496.00" arrivalSpeed="16.66" duration="175.80" routeLength="2494.90" waitingTime="12.00" waitingCount="1" stopTime="0.00" timeLoss="26.05" rerouteNo="0" devices="tripinfo_up1_39" vType="Car@up1_39" speedFactor="0.90" vaporized=""/>
    <tripinfo id="down2_55" depart="9.00" departLane="29to4_0" departPos="5.10" departSpeed="16.67" departDelay="0.00" arrival="185.60" arrivalLane="outs2_0" arrivalPos="496.00" arrivalSpeed="16.66" duration="176.60" routeLength="2494.90" waitingTime="12.80" waitingCount="1" stopTime="0.00" timeLoss="26.91" rerouteNo="0" devices="tripinfo_down2_55" vType="Car@down2_55" speedFactor="1.00" vaporized=""/>
    <tripinfo id="up1_44" depart="9.00" departLane="28to21_0" departPos="5.10" departSpeed="16.67" departDelay="2.00" arrival="185.80" arrivalLane="outn1_0" arrivalPos="496.00" arrivalSpeed="16.66" duration="176.80" routeLength="2494.90" waitingTime="12.80" waitingCount="1" stopTime="0.00" timeLoss="26.95" rerouteNo="0" devices="tripinfo_up1_44" vType="Car@up1_44" speedFactor="1.04" vaporized=""/>
    <tripinfo id="up1_50" depart="10.60" departLane="28to21_0" departPos="5.10" departSpeed="16.62" departDelay="2.60" arrival="188.40" arrivalLane="outn1_0" arrivalPos="496.00" arrivalSpeed="16.61" duration="177.80" routeLength="2494.90" waitingTime="13.60" waitingCount="1" stopTime="0.00" timeLoss="27.64" rerouteNo="0" devices="tripinfo_up1_50" vType="Car@up1_50" speedFactor="0.85" vaporized=""/>
    <tripinfo id="down2_61" depart="10.60" departLane="29to4_0" departPos="5.10" departSpeed="16.67" departDelay="0.60" arrival="188.40" arrivalLane="outs2_0" arrivalPos="496.00" arrivalSpeed="16.66" duration="177.80" routeLength="2494.90" waitingTime="13.80" waitingCount="1" stopTime="0.00" timeLoss="27.97" rerouteNo="0" devices="tripinfo_down2_61" vType="Car@down2_61" speedFactor="1.12" vaporized=""/>
    <tripinfo id="left2_34" depart="6.40" departLane="24to23_0" departPos="5.10" departSpeed="16.67" departDelay="1.40" arrival="193.40" arrivalLane="outl2_0" arrivalPos="492.80" arrivalSpeed="16.67" duration="187.00" routeLength="2494.90" waitingTime="0.60" waitingCount="1" stopTime="22.80" timeLoss="14.41" rerouteNo="0" devices="tripinfo_left2_34" vType="Car@left2_34" speedFactor="0.99" vaporized=""/>
    <tripinfo id="right2_64" depart="11.60" departLane="13to14_0" departPos="5.10" departSpeed="16.67" departDelay="0.60" arrival="199.20" arrivalLane="outr2_0" arrivalPos="492.80" arrivalSpeed="16.67" duration="187.60" routeLength="2494.90" waitingTime="0.60" waitingCount="1" stopTime="23.60" timeLoss="14.25" rerouteNo="0" devices="tripinfo_right2_64" vType="Car@right2_64" speedFactor="0.94" vaporized=""/>
    <tripinfo id="down1_2" depart="0.00" departLane="25to2_0" departPos="5.10" departSpeed="16.67" departDelay="0.00" arrival="199.60" arrivalLane="outs1_0" arrivalPos="496.00" arrivalSpeed="16.67" duration="199.60" routeLength="2494.90" waitingTime="1.20" waitingCount="2" stopTime="21.80" timeLoss="28.04" rerouteNo="0" devices="tripinfo_down1_2" vType="Car@down1_2" speedFactor="1.01" vaporized=""/>
    <tripinfo id="left1_15" depart="2.00" departLane="12to11_0" departPos="5.10" departSpeed="16.67" departDelay="0.00" arrival="200.60" arrivalLane="outl1_0" arrivalPos="492.80" arrivalSpeed="16.67" duration="198.60" routeLength="2494.90" waitingTime="1.20" waitingCount="2" stopTime="21.20" timeLoss="27.68" rerouteNo="0" devices="tripinfo_left1_15" vType="Car@left1_15" speedFactor="0.93" vaporized=""/>
    <tripinfo id="up2_3" depart="0.00" departLane="32to23_0" departPos="5.10" departSpeed="16.67" departDelay="0.00" arrival="201.60" arrivalLane="outn2_0" arrivalPos="496.00" arrivalSpeed="16.67" duration="201.60" routeLength="2494.90" waitingTime="1.20" waitingCount="2" stopTime="23.80" timeLoss="28.04" rerouteNo="0" devices="tripinfo_up2_3" vType="Car@up2_3" speedFactor="1.08" vaporized=""/>
    <tripinfo id="right2_70" depart="13.20" departLane="13to14_0" departPos="5.10" departSpeed="16.67" departDelay="1.20" arrival="202.40" arrivalLane="outr2_0" arrivalPos="492.80" arrivalSpeed="16.66" duration="189.20" routeLength="2494.90" waitingTime="25.40" waitingCount="1" stopTime="0.00" timeLoss="39.35" rerouteNo="0" devices="tripinfo_right2_70" vType="Car@right2_70" speedFactor="1.02" vaporized=""/>
    <tripinfo id="left1_18" depart="3.60" departLane="12to11_0" departPos="5.10" departSpeed="16.67" departDelay="0.60" arrival="203.80" arrivalLane="outl1_0" arrivalPos="492.80" arrivalSpeed="16.66" duration="200.20" routeLength="2494.90" waitingTime="22.40" waitingCount="2" stopTime="0.00" timeLoss="50.37" rerouteNo="0" devices="tripinfo_left1_18" vType="Car@left1_18" speedFactor="0.94" vaporized=""/>
    <tripinfo id="down1_5" depart="1.40" departLane="25to2_0" departPos="5.10" departSpeed="16.16" departDelay="0.40" arrival="204.20" arrivalLane="outs1_0" arrivalPos="496.00" arrivalSpeed="16.15" duration="202.80" routeLength="2494.90" waitingTime="20.80" waitingCount="2" stopTime="0.00" timeLoss="48.34" rerouteNo="0" devices="tripinfo_down1_5" vType="Car@down1_5" speedFactor="0.83" vaporized=""/>
    <tripinfo id="up2_8" depart="1.60" departLane="32to23_0" departPos="5.10" departSpeed="16.67" departDelay="0.60" arrival="204.60" arrivalLane="outn2_0" arrivalPos="496.00" arrivalSpeed="16.66" duration="203.00" routeLength="2494.90" waitingTime="25.20" waitingCount="2" stopTime="0.00" timeLoss="53.25" rerouteNo="0" devices="tripinfo_up2_8" vType="Car@up2_8" speedFactor="0.94" vaporized=""/>
    <tripinfo id="right2_77" depart="14.80" departLane="13to14_0" departPos="5.10" departSpeed="16.67" departDelay="1.80" arrival="205.00" arrivalLane="outr2_0" arrivalPos="492.80" arrivalSpeed="16.66" duration="190.20" routeLength="2494.90" waitingTime="26.20" waitingCount="1" stopTime="0.00" timeLoss="40.51" rerouteNo="0" devices="tripinfo_right2_77" vType="Car@right2_77" speedFactor="0.98" vaporized=""/>
    <tripinfo id="down1_12" depart="3.20" departLane="25to2_0" departPos="5.10" departSpeed="16.67" departDelay="1.20" arrival="205.80" arrivalLane="outs1_0" arrivalPos="496.00" arrivalSpeed="16.56" duration="202.60" routeLength="2494.90" waitingTime="24.80" waitingCount="2" stopTime="0.00" timeLoss="52.83" rerouteNo="0" devices="tripinfo_down1_12" vType="Car@down1_12" speedFactor="1.05" vaporized=""/>
    <tripinfo id="left1_25" depart="5.20" departLane="12to11_0" departPos="5.10" departSpeed="16.67" departDelay="1.20" arrival="206.40" arrivalLane="outl1_0" arrivalPos="492.80" arrivalSpeed="16.66" duration="201.20" routeLength="2494.90" waitingTime="23.60" waitingCount="2" stopTime="0.00" timeLoss="51.45" rerouteNo="0" devices="tripinfo_left1_25" vType="Car@left1_25" speedFactor="0.87" vaporized=""/>
    <tripinfo id="right2_84" depart="16.40" departLane="13to14_0" departPos="5.10" departSpeed="16.67" departDelay="2.40" arrival="207.80" arrivalLane="outr2_0" arrivalPos="492.80" arrivalSpeed="16.66" duration="191.40" routeLength="2494.90" waitingTime="27.20" waitingCount="1" stopTime="0.00" timeLoss="41.58" rerouteNo="0" devices="tripinfo_right2_84" vType="Car@right2_84" speedFactor="1.15" vaporized=""/>
    <tripinfo id="down1_17" depart="4.80" departLane="25to2_0" departPos="5.10" departSpeed="16.67" departDelay="1.80" arrival="208.20" arrivalLane="outs1_0" arrivalPos="496.00" arrivalSpeed="16.65" duration="203.40" routeLength="2494.90" waitingTime="25.60" waitingCount="2" stopTime="0.00" timeLoss="53.66" rerouteNo="0" devices="tripinfo_down1_17" vType="Car@down1_17" speedFactor="0.94" vaporized=""/>
    <tripinfo id="up2_24" depart="4.00" departLane="32to23_0" departPos="5.10" departSpeed="16.05" departDelay="0.00" arrival="209.00" arrivalLane="outn2_0" arrivalPos="496.00" arrivalSpeed="16.05" duration="205.00" routeLength="2494.90" waitingTime="21.60" waitingCount="2" stopTime="0.00" timeLoss="49.54" rerouteNo="0" devices="tripinfo_up2_24" vType="Car@up2_24" speedFactor="0.83" vaporized=""/>
    <tripinfo id="left1_33" depart="6.80" departLane="12to11_0" departPos="5.10" departSpeed="16.67" departDelay="1.80" arrival="209.00" arrivalLane="outl1_0" arrivalPos="492.80" arrivalSpeed="16.66" duration="202.20" routeLength="2494.90" waitingTime="24.00" waitingCount="2" stopTime="0.00" timeLoss="52.35" rerouteNo="0" devices="tripinfo_left1_33" vType="Car@left1_33" speedFactor="1.17" vaporized=""/>
    <tripinfo id="right2_97" depart="18.00" departLane="13to14_0" departPos="5.10" departSpeed="16.67" departDelay="2.00" arrival="210.20" arrivalLane="outr2_0" arrivalPos="492.80" arrivalSpeed="16.66" duration="192.20" routeLength="2494.90" waitingTime="28.00" waitingCount="1" stopTime="0.00" timeLoss="42.51" rerouteNo="0" devices="tripinfo_right2_97" vType="Car@right2_97" speedFactor="0.91" vaporized=""/>
    <tripinfo id="up2_32" depart="5.80" departLane="32to23_0" departPos="5.10" departSpeed="16.67" departDelay="0.80" arrival="210.40" arrivalLane="outn2_0" arrivalPos="496.00" arrivalSpeed="16.48" duration="204.60" routeLength="2494.90" waitingTime="26.20" waitingCount="2" stopTime="0.00" timeLoss="54.77" rerouteNo="0" devices="tripinfo_up2_32" vType="Car@up2_32" speedFactor="1.01" vaporized=""/>
    <tripinfo id="down1_21" depart="6.40" departLane="25to2_0" departPos="5.10" departSpeed="16.67" departDelay="2.40" arrival="210.80" arrivalLane="outs1_0" arrivalPos="496.00" arrivalSpeed="16.66" duration="204.40" routeLength="2494.90" waitingTime="26.60" waitingCount="2" stopTime="0.00" timeLoss="54.55" rerouteNo="0" devices="tripinfo_down1_21" vType="Car@down1_21" speedFactor="1.01" vaporized=""/>
    <tripinfo id="left1_46" depart="8.40" departLane="12to11_0" departPos="5.10" departSpeed="16.67" departDelay="1.40" arrival="211.40" arrivalLane="outl1_0" arrivalPos="492.80" arrivalSpeed="16.66" duration="203.00" routeLength="2494.90" waitingTime="25.00" waitingCount="2" stopTime="0.00" timeLoss="53.28" rerouteNo="0" devices="tripinfo_left1_46" vType="Car@left1_46" speedFactor="1.00" vaporized=""/>
    <tripinfo id="up2_40" depart="7.40" departLane="32to23_0" departPos="5.10" departSpeed="16.67" departDelay="1.40" arrival="212.60" arrivalLane="outn2_0" arrivalPos="496.00" arrivalSpeed="16.64" duration="205.20" routeLength="2494.90" waitingTime="27.40" waitingCount="2" stopTime="0.00" timeLoss="55.45" rerouteNo="0" devices="tripinfo_up2_40" vType="Car@up2_40" speedFactor="1.03" vaporized=""/>
    <tripinfo id="right2_102" depart="19.60" departLane="13to14_0" departPos="5.10" departSpeed="16.67" departDelay="2.60" arrival="212.80" arrivalLane="outr2_0" arrivalPos="492.80" arrivalSpeed="16.66" duration="193.20" routeLength="2494.90" waitingTime="29.20" waitingCount="1" stopTime="0.00" timeLoss="43.41" rerouteNo="0" devices="tripinfo_right2_102" vType="Car@right2_102" speedFactor="0.97" vaporized=""/>
    <tripinfo id="down1_29" depart="8.00" departLane="25to2_0" departPos="5.10" departSpeed="16.67" departDelay="3.00" arrival="213.20" arrivalLane="outs1_0" arrivalPos="496.00" arrivalSpeed="16.66" duration="205.20" routeLength="2494.90" waitingTime="27.40" waitingCount="2" stopTime="0.00" timeLoss="55.43" rerouteNo="0" devices="tripinfo_down1_29" vType="Car@down1_29" speedFactor="0.93" vaporized=""/>
    <tripinfo id="left1_52" depart="10.00" departLane="12to11_0" departPos="5.10" departSpeed="16.67" departDelay="2.00" arrival="214.00" arrivalLane="outl1_0" arrivalPos="492.80" arrivalSpeed="16.66" duration="204.00" routeLength="2494.90" waitingTime="25.80" waitingCount="2" stopTime="0.00" timeLoss="54.15" rerouteNo="0" devices="tripinfo_left1_52" vType="Car@left1_52" speedFactor="1.02" vaporized=""/>
    <tripinfo id="up2_45" depart="9.00" departLane="32to23_0" departPos="5.10" departSpeed="16.67" departDelay="2.00" arrival="215.20" arrivalLane="outn2_0" arrivalPos="496.00" arrivalSpeed="16.66" duration="206.20" routeLength="2494.90" waitingTime="28.40" waitingCount="2" stopTime="0.00" timeLoss="56.37" rerouteNo="0" devices="tripinfo_up2_45" vType="Car@up2_45" speedFactor="1.09" vaporized=""/>
    <tripinfo id="right2_116" depart="21.20" departLane="13to14_0" departPos="5.10" departSpeed="16.67" departDelay="1.20" arrival="215.40" arrivalLane="outr2_0" arrivalPos="492.80" arrivalSpeed="16.66" duration="194.20" routeLength="2494.90" waitingTime="30.20" waitingCount="1" stopTime="0.00" timeLoss="44.35" rerouteNo="0" devices="tripinfo_right2_116" vType="Car@right2_116" speedFactor="1.18" vaporized=""/>
    <tripinfo id="down1_37" depart="9.60" departLane="25to2_0" departPos="5.10" departSpeed="16.67" departDelay="3.60" arrival="215.60" arrivalLane="outs1_0" arrivalPos="496.00" arrivalSpeed="16.66" duration="206.00" routeLength="2494.90" waitingTime="28.20" waitingCount="2" stopTime="0.00" timeLoss="56.32" rerouteNo="0" devices="tripinfo_down1_37" vType="Car@down1_37" speedFactor="1.18" vaporized=""/>
    <tripinfo id="left1_56" depart="11.60" departLane="12to11_0" departPos="5.10" departSpeed="16.67" departDelay="2.60" arrival="216.40" arrivalLane="outl1_0" arrivalPos="492.80" arrivalSpeed="16.66" duration="204.80" routeLength="2494.90" waitingTime="27.00" waitingCount="2" stopTime="0.00" timeLoss="55.04" rerouteNo="0" devices="tripinfo_left1_56" vType="Car@left1_56" speedFactor="0.90" vaporized=""/>
    <tripinfo id="up2_51" depart="10.60" departLane="32to23_0" departPos="5.10" departSpeed="16.67" departDelay="2.60" arrival="217.80" arrivalLane="outn2_0" arrivalPos="496.00" arrivalSpeed="16.66" duration="207.20" routeLength="2494.90" waitingTime="29.20" waitingCount="2" stopTime="0.00" timeLoss="57.34" rerouteNo="0" devices="tripinfo_up2_51" vType="Car@up2_51" speedFactor="1.17" vaporized=""/>
    <tripinfo id="right2_123" depart="22.80" departLane="13to14_0" departPos="5.10" departSpeed="16.67" departDelay="1.80" arrival="217.80" arrivalLane="outr2_0" arrivalPos="492.80" arrivalSpeed="16.66" duration="195.00" routeLength="2494.90" waitingTime="31.00" waitingCount="1" stopTime="0.00" timeLoss="45.32" rerouteNo="0" devices="tripinfo_right2_123" vType="Car@right2_123" speedFactor="1.02" vaporized=""/>
    <tripinfo id="down1_43" depart="11.20" departLane="25to2_0" departPos="5.10" departSpeed="16.67" departDelay="4.20" arrival="218.20" arrivalLane="outs1_0" arrivalPos="496.00" arrivalSpeed="16.66" duration="207.00" routeLength="2494.90" waitingTime="29.20" waitingCount="2" stopTime="0.00" timeLoss="57.20" rerouteNo="0" devices="tripinfo_down1_43" vType="Car@down1_43" speedFactor="1.04" vaporized=""/>
    <tripinfo id="left1_62" depart="13.20" departLane="12to11_0" departPos="5.10" departSpeed="16.67" departDelay="3.20" arrival="219.00" arrivalLane="outl1_0" arrivalPos="492.80" arrivalSpeed="16.66" duration="205.80" routeLength="2494.90" waitingTime="27.80" waitingCount="2" stopTime="0.00" timeLoss="56.00" rerouteNo="0" devices="tripinfo_left1_62" vType="Car@left1_62" speedFactor="1.02" vaporized=""/>
    <tripinfo id="up2_68" depart="12.20" departLane="32to23_0" departPos="5.10" departSpeed="16.67" departDelay="1.20" arrival="220.40" arrivalLane="outn2_0" arrivalPos="496.00" arrivalSpeed="16.66" duration="208.20" routeLength="2494.90" waitingTime="30.20" waitingCount="2" stopTime="0.00" timeLoss="58.36" rerouteNo="0" devices="tripinfo_up2_68" vType="Car@up2_68" speedFactor="1.04" vaporized=""/>
    <tripinfo id="left2_41" depart="8.00" departLane="24to23_0" departPos="5.10" departSpeed="16.67" departDelay="2.00" arrival="223.20" arrivalLane="outl2_0" arrivalPos="492.80" arrivalSpeed="16.67" duration="215.20" routeLength="2494.90" waitingTime="25.00" waitingCount="2" stopTime="22.80" timeLoss="42.58" rerouteNo="0" devices="tripinfo_left2_41" vType="Car@left2_41" speedFactor="0.96" vaporized=""/>
    <tripinfo id="left2_47" depart="9.60" departLane="24to23_0" departPos="5.10" departSpeed="16.67" departDelay="2.60" arrival="226.00" arrivalLane="outl2_0" arrivalPos="492.80" arrivalSpeed="16.66" duration="216.40" routeLength="2494.90" waitingTime="48.20" waitingCount="2" stopTime="0.00" timeLoss="66.70" rerouteNo="0" devices="tripinfo_left2_47" vType="Car@left2_47" speedFactor="0.90" vaporized=""/>
    <tripinfo id="up1_67" depart="12.20" departLane="28to21_0" departPos="5.10" departSpeed="16.67" departDelay="1.20" arrival="227.40" arrivalLane="outn1_0" arrivalPos="496.00" arrivalSpeed="16.67" duration="215.20" routeLength="2494.90" waitingTime="15.40" waitingCount="2" stopTime="22.60" timeLoss="42.82" rerouteNo="0" devices="tripinfo_up1_67" vType="Car@up1_67" speedFactor="0.91" vaporized=""/>
    <tripinfo id="left2_53" depart="11.20" departLane="24to23_0" departPos="5.10" departSpeed="16.67" departDelay="3.20" arrival="228.60" arrivalLane="outl2_0" arrivalPos="492.80" arrivalSpeed="16.66" duration="217.40" routeLength="2494.90" waitingTime="14.00" waitingCount="2" stopTime="24.80" timeLoss="42.87" rerouteNo="0" devices="tripinfo_left2_53" vType="Car@left2_53" speedFactor="1.10" vaporized=""/>
    <tripinfo id="down2_66" depart="12.20" departLane="29to4_0" departPos="5.10" departSpeed="16.67" departDelay="1.20" arrival="230.00" arrivalLane="outs2_0" arrivalPos="496.00" arrivalSpeed="16.67" duration="217.80" routeLength="2494.90" waitingTime="1.20" waitingCount="2" stopTime="39.80" timeLoss="28.16" rerouteNo="0" devices="tripinfo_down2_66" vType="Car@down2_66" speedFactor="0.91" vaporized=""/>
    <tripinfo id="up1_72" depart="13.80" departLane="28to21_0" departPos="5.10" departSpeed="16.67" departDelay="1.80" arrival="230.60" arrivalLane="outn1_0" arrivalPos="496.00" arrivalSpeed="16.66" duration="216.80" routeLength="2494.90" waitingTime="16.40" waitingCount="2" stopTime="26.60" timeLoss="40.51" rerouteNo="0" devices="tripinfo_up1_72" vType="Car@up1_72" speedFactor="0.94" vaporized=""/>
    <tripinfo id="left2_57" depart="12.80" departLane="24to23_0" departPos="5.10" departSpeed="16.67" departDelay="3.80" arrival="231.20" arrivalLane="outl2_0" arrivalPos="492.80" arrivalSpeed="16.66" duration="218.40" routeLength="2494.90" waitingTime="40.00" waitingCount="2" stopTime="0.00" timeLoss="68.57" rerouteNo="0" devices="tripinfo_left2_57" vType="Car@left2_57" speedFactor="1.14" vaporized=""/>
    <tripinfo id="right1_16" depart="3.60" departLane="1to2_0" departPos="5.10" departSpeed="16.67" departDelay="0.60" arrival="232.00" arrivalLane="outr1_0" arrivalPos="492.80" arrivalSpeed="16.62" duration="228.40" routeLength="2494.90" waitingTime="18.40" waitingCount="3" stopTime="27.40" timeLoss="51.33" rerouteNo="0" devices="tripinfo_right1_16" vType="Car@right1_16" speedFactor="0.88" vaporized=""/>
    <tripinfo id="down2_79" depart="13.80" departLane="29to4_0" departPos="5.10" departSpeed="16.67" departDelay="0.80" arrival="233.00" arrivalLane="outs2_0" arrivalPos="496.00" arrivalSpeed="16.66" duration="219.20" routeLength="2494.90" waitingTime="34.20" waitingCount="4" stopTime="0.20" timeLoss="69.23" rerouteNo="0" devices="tripinfo_down2_79" vType="Car@down2_79" speedFactor="1.09" vaporized=""/>
    <tripinfo id="up1_80" depart="15.40" departLane="28to21_0" departPos="5.10" departSpeed="16.67" departDelay="2.40" arrival="233.20" arrivalLane="outn1_0" arrivalPos="496.00" arrivalSpeed="16.66" duration="217.80" routeLength="2494.90" waitingTime="43.80" waitingCount="2" stopTime="0.00" timeLoss="68.07" rerouteNo="0" devices="tripinfo_up1_80" vType="Car@up1_80" speedFactor="1.03" vaporized=""/>
    <tripinfo id="left2_63" depart="14.40" departLane="24to23_0" departPos="5.10" departSpeed="16.67" departDelay="4.40" arrival="233.60" arrivalLane="outl2_0" arrivalPos="492.80" arrivalSpeed="16.66" duration="219.20" routeLength="2494.90" waitingTime="40.60" waitingCount="2" stopTime="0.00" timeLoss="69.42" rerouteNo="0" devices="tripinfo_left2_63" vType="Car@left2_63" speedFactor="0.99" vaporized=""/>
    <tripinfo id="right1_20" depart="5.20" departLane="1to2_0" departPos="5.10" departSpeed="16.67" departDelay="1.20" arrival="235.20" arrivalLane="outr1_0" arrivalPos="492.80" arrivalSpeed="16.62" duration="230.00" routeLength="2494.90" waitingTime="46.20" waitingCount="3" stopTime="0.00" timeLoss="80.22" rerouteNo="0" devices="tripinfo_right1_20" vType="Car@right1_20" speedFactor="1.02" vaporized=""/>