<?xml version="1.0" encoding="UTF-8"?>

<!-- generated on 2021-12-30 11:17:15 by Eclipse SUMO sumo Version 1.10.0
<configuration xmlns:xsi="http://www.w3.org/2001/XMLSchema-instance" xsi:noNamespaceSchemaLocation="http://sumo.dlr.de/xsd/sumoConfiguration.xsd">

    <input>
        <net-file value="data/ciudad2x2_semaforo.net.xml"/>
        <route-files value="data/ciudad2x2_semaforo.rou.xml"/>
    </input>

    <output>
        <tripinfo-output value="data/out-tripinfo.xml"/>
    </output>

    <time>
        <begin value="0"/>
        <step-length value="0.2"/>
    </time>

    <processing>
        <collision.mingap-factor value="0"/>
    </processing>

    <report>
        <verbose value="true"/>
        <no-step-log value="true"/>
    </report>

    <traci_server>
        <remote-port value="38767"/>
    </traci_server>

    <gui_only>
        <tracker-interval value="0.2"/>
    </gui_only>

</configuration>
-->

<tripinfos xmlns:xsi="http://www.w3.org/2001/XMLSchema-instance" xsi:noNamespaceSchemaLocation="http://sumo.dlr.de/xsd/tripinfo_file.xsd">
    <tripinfo id="down1_0" depart="0.00" departLane="9to2_0" departPos="5.10" departSpeed="16.67" departDelay="0.00" arrival="89.80" arrivalLane="outs1_0" arrivalPos="496.00" arrivalSpeed="16.67" duration="89.80" routeLength="1494.90" waitingTime="0.00" waitingCount="0" stopTime="0.00" timeLoss="0.08" rerouteNo="0" devices="tripinfo_down1_0" vType="Car@down1_0" speedFactor="1.06" vaporized=""/>
    <tripinfo id="right1_4" depart="1.00" departLane="1to2_0" departPos="5.10" departSpeed="16.67" departDelay="0.00" arrival="90.80" arrivalLane="outr1_0" arrivalPos="492.80" arrivalSpeed="16.67" duration="89.80" routeLength="1494.90" waitingTime="0.00" waitingCount="0" stopTime="0.00" timeLoss="0.07" rerouteNo="0" devices="tripinfo_right1_4" vType="Car@right1_4" speedFactor="1.03" vaporized=""/>
    <tripinfo id="left1_2" depart="0.00" departLane="8to7_0" departPos="5.10" departSpeed="16.67" departDelay="0.00" arrival="91.20" arrivalLane="outl1_0" arrivalPos="492.80" arrivalSpeed="16.66" duration="91.20" routeLength="1494.90" waitingTime="0.00" waitingCount="0" stopTime="0.00" timeLoss="1.35" rerouteNo="0" devices="tripinfo_left1_2" vType="Car@left1_2" speedFactor="1.01" vaporized=""/>
    <tripinfo id="down1_3_emergency" depart="1.60" departLane="9to2_0" departPos="5.10" departSpeed="16.67" departDelay="0.60" arrival="91.80" arrivalLane="outs1_0" arrivalPos="496.00" arrivalSpeed="16.65" duration="90.20" routeLength="1494.90" waitingTime="0.00" waitingCount="0" stopTime="0.00" timeLoss="0.45" rerouteNo="0" devices="tripinfo_down1_3_emergency" vType="Car@down1_3_emergency" speedFactor="1.08" vaporized=""/>
    <tripinfo id="up1_1" depart="0.00" departLane="12to7_0" departPos="5.10" departSpeed="16.67" departDelay="0.00" arrival="92.20" arrivalLane="outn1_0" arrivalPos="496.00" arrivalSpeed="16.67" duration="92.20" routeLength="1494.90" waitingTime="0.00" waitingCount="0" stopTime="0.00" timeLoss="2.35" rerouteNo="0" devices="tripinfo_up1_1" vType="Car@up1_1" speedFactor="0.94" vaporized=""/>
    <tripinfo id="right1_7" depart="2.60" departLane="1to2_0" departPos="5.10" departSpeed="16.67" departDelay="0.60" arrival="92.80" arrivalLane="outr1_0" arrivalPos="492.80" arrivalSpeed="16.65" duration="90.20" routeLength="1494.90" waitingTime="0.00" waitingCount="0" stopTime="0.00" timeLoss="0.42" rerouteNo="0" devices="tripinfo_right1_7" vType="Car@right1_7" speedFactor="0.89" vaporized=""/>
    <tripinfo id="left1_10" depart="2.00" departLane="8to7_0" departPos="5.10" departSpeed="16.67" departDelay="0.00" arrival="94.60" arrivalLane="outl1_0" arrivalPos="492.80" arrivalSpeed="16.66" duration="92.60" routeLength="1494.90" waitingTime="0.00" waitingCount="0" stopTime="0.00" timeLoss="2.91" rerouteNo="0" devices="tripinfo_left1_10" vType="Car@left1_10" speedFactor="1.09" vaporized=""/>
    <tripinfo id="up1_6" depart="1.60" departLane="12to7_0" departPos="5.10" departSpeed="16.67" departDelay="0.60" arrival="96.60" arrivalLane="outn1_0" arrivalPos="496.00" arrivalSpeed="16.64" duration="95.00" routeLength="1494.90" waitingTime="0.00" waitingCount="0" stopTime="0.00" timeLoss="5.32" rerouteNo="0" devices="tripinfo_up1_6" vType="Car@up1_6" speedFactor="1.05" vaporized=""/>
    <tripinfo id="down1_5" depart="3.00" departLane="9to2_0" departPos="5.10" departSpeed="16.16" departDelay="2.00" arrival="97.80" arrivalLane="outs1_0" arrivalPos="496.00" arrivalSpeed="16.15" duration="94.80" routeLength="1494.90" waitingTime="0.00" waitingCount="0" stopTime="0.00" timeLoss="2.21" rerouteNo="0" devices="tripinfo_down1_5" vType="Car@down1_5" speedFactor="0.83" vaporized=""/>
    <tripinfo id="left1_14" depart="3.60" departLane="8to7_0" departPos="5.10" departSpeed="16.67" departDelay="0.60" arrival="97.80" arrivalLane="outl1_0" arrivalPos="492.80" arrivalSpeed="16.66" duration="94.20" routeLength="1494.90" waitingTime="0.00" waitingCount="0" stopTime="0.00" timeLoss="4.51" rerouteNo="0" devices="tripinfo_left1_14" vType="Car@left1_14" speedFactor="0.99" vaporized=""/>
    <tripinfo id="up1_9" depart="3.20" departLane="12to7_0" departPos="5.10" departSpeed="16.66" departDelay="1.20" arrival="98.00" arrivalLane="outn1_0" arrivalPos="496.00" arrivalSpeed="16.53" duration="94.80" routeLength="1494.90" waitingTime="0.00" waitingCount="0" stopTime="0.00" timeLoss="4.91" rerouteNo="0" devices="tripinfo_up1_9" vType="Car@up1_9" speedFactor="0.86" vaporized=""/>
    <tripinfo id="down1_8" depart="4.80" departLane="9to2_0" departPos="5.10" departSpeed="16.67" departDelay="2.80" arrival="98.60" arrivalLane="outs1_0" arrivalPos="496.00" arrivalSpeed="16.26" duration="93.80" routeLength="1494.90" waitingTime="0.00" waitingCount="0" stopTime="0.00" timeLoss="4.08" rerouteNo="0" devices="tripinfo_down1_8" vType="Car@down1_8" speedFactor="0.94" vaporized=""/>
    <tripinfo id="right1_11" depart="4.20" departLane="1to2_0" departPos="5.10" departSpeed="16.67" departDelay="1.20" arrival="98.60" arrivalLane="outr1_0" arrivalPos="492.80" arrivalSpeed="16.64" duration="94.40" routeLength="1494.90" waitingTime="0.00" waitingCount="0" stopTime="0.00" timeLoss="4.61" rerouteNo="0" devices="tripinfo_right1_11" vType="Car@right1_11" speedFactor="1.03" vaporized=""/>
    <tripinfo id="up1_13" depart="4.80" departLane="12to7_0" departPos="5.10" departSpeed="16.67" departDelay="1.80" arrival="98.80" arrivalLane="outn1_0" arrivalPos="496.00" arrivalSpeed="16.41" duration="94.00" routeLength="1494.90" waitingTime="0.00" waitingCount="0" stopTime="0.00" timeLoss="4.33" rerouteNo="0" devices="tripinfo_up1_13" vType="Car@up1_13" speedFactor="1.12" vaporized=""/>
    <tripinfo id="left1_18" depart="5.20" departLane="8to7_0" departPos="5.10" departSpeed="16.67" departDelay="1.20" arrival="99.40" arrivalLane="outl1_0" arrivalPos="492.80" arrivalSpeed="16.62" duration="94.20" routeLength="1494.90" waitingTime="0.00" waitingCount="0" stopTime="0.00" timeLoss="4.48" rerouteNo="0" devices="tripinfo_left1_18" vType="Car@left1_18" speedFactor="0.94" vaporized=""/>
    <tripinfo id="right1_15" depart="5.80" departLane="1to2_0" departPos="5.10" departSpeed="16.67" departDelay="1.80" arrival="99.80" arrivalLane="outr1_0" arrivalPos="492.80" arrivalSpeed="16.53" duration="94.00" routeLength="1494.90" waitingTime="0.00" waitingCount="0" stopTime="0.00" timeLoss="4.15" rerouteNo="0" devices="tripinfo_right1_15" vType="Car@right1_15" speedFactor="0.93" vaporized=""/>
    <tripinfo id="left1_21" depart="6.80" departLane="8to7_0" departPos="5.10" departSpeed="16.67" departDelay="1.80" arrival="100.60" arrivalLane="outl1_0" arrivalPos="492.80" arrivalSpeed="16.56" duration="93.80" routeLength="1494.90" waitingTime="0.00" waitingCount="0" stopTime="0.00" timeLoss="4.06" rerouteNo="0" devices="tripinfo_left1_21" vType="Car@left1_21" speedFactor="1.01" vaporized=""/>
    <tripinfo id="up1_17" depart="6.40" departLane="12to7_0" departPos="5.10" departSpeed="16.67" departDelay="2.40" arrival="101.00" arrivalLane="outn1_0" arrivalPos="496.00" arrivalSpeed="16.63" duration="94.60" routeLength="1494.90" waitingTime="0.00" waitingCount="0" stopTime="0.00" timeLoss="4.82" rerouteNo="0" devices="tripinfo_up1_17" vType="Car@up1_17" speedFactor="0.94" vaporized=""/>
    <tripinfo id="up1_20" depart="8.00" departLane="12to7_0" departPos="5.10" departSpeed="16.67" departDelay="3.00" arrival="102.20" arrivalLane="outn1_0" arrivalPos="496.00" arrivalSpeed="16.57" duration="94.20" routeLength="1494.90" waitingTime="0.00" waitingCount="0" stopTime="0.00" timeLoss="4.42" rerouteNo="0" devices="tripinfo_up1_20" vType="Car@up1_20" speedFactor="1.02" vaporized=""/>
    <tripinfo id="down1_12" depart="6.40" departLane="9to2_0" departPos="5.10" departSpeed="16.67" departDelay="3.40" arrival="103.40" arrivalLane="outs1_0" arrivalPos="496.00" arrivalSpeed="16.65" duration="97.00" routeLength="1494.90" waitingTime="0.00" waitingCount="0" stopTime="0.00" timeLoss="7.31" rerouteNo="0" devices="tripinfo_down1_12" vType="Car@down1_12" speedFactor="1.05" vaporized=""/>
    <tripinfo id="left1_25" depart="8.40" departLane="8to7_0" departPos="5.10" departSpeed="16.67" departDelay="2.40" arrival="103.60" arrivalLane="outl1_0" arrivalPos="492.80" arrivalSpeed="16.66" duration="95.20" routeLength="1494.90" waitingTime="0.00" waitingCount="0" stopTime="0.00" timeLoss="5.45" rerouteNo="0" devices="tripinfo_left1_25" vType="Car@left1_25" speedFactor="0.87" vaporized=""/>
    <tripinfo id="left1_29" depart="10.00" departLane="8to7_0" departPos="5.10" departSpeed="16.67" departDelay="3.00" arrival="105.00" arrivalLane="outl1_0" arrivalPos="492.80" arrivalSpeed="16.59" duration="95.00" routeLength="1494.90" waitingTime="0.00" waitingCount="0" stopTime="0.00" timeLoss="5.16" rerouteNo="0" devices="tripinfo_left1_29" vType="Car@left1_29" speedFactor="0.93" vaporized=""/>
    <tripinfo id="right1_22" depart="7.40" departLane="1to2_0" departPos="5.10" departSpeed="16.67" departDelay="1.40" arrival="107.00" arrivalLane="outr1_0" arrivalPos="492.80" arrivalSpeed="16.67" duration="99.60" routeLength="1494.90" waitingTime="0.00" waitingCount="0" stopTime="0.00" timeLoss="9.80" rerouteNo="0" devices="tripinfo_right1_22" vType="Car@right1_22" speedFactor="0.98" vaporized=""/>
    <tripinfo id="up1_24" depart="9.40" departLane="12to7_0" departPos="5.10" departSpeed="16.05" departDelay="3.40" arrival="109.20" arrivalLane="outn1_0" arrivalPos="496.00" arrivalSpeed="16.05" duration="99.80" routeLength="1494.90" waitingTime="0.00" waitingCount="0" stopTime="0.00" timeLoss="6.57" rerouteNo="0" devices="tripinfo_up1_24" vType="Car@up1_24" speedFactor="0.83" vaporized=""/>
    <tripinfo id="down1_16" depart="8.00" departLane="9to2_0" departPos="5.10" departSpeed="16.67" departDelay="4.00" arrival="112.20" arrivalLane="outs1_0" arrivalPos="496.00" arrivalSpeed="16.67" duration="104.20" routeLength="1494.90" waitingTime="1.20" waitingCount="1" stopTime="0.00" timeLoss="14.34" rerouteNo="0" devices="tripinfo_down1_16" vType="Car@down1_16" speedFactor="0.88" vaporized=""/>
    <tripinfo id="left1_36" depart="11.60" departLane="8to7_0" departPos="5.10" departSpeed="16.67" departDelay="2.60" arrival="114.80" arrivalLane="outl1_0" arrivalPos="492.80" arrivalSpeed="16.67" duration="103.20" routeLength="1494.90" waitingTime="0.40" waitingCount="1" stopTime="0.00" timeLoss="13.40" rerouteNo="0" devices="tripinfo_left1_36" vType="Car@left1_36" speedFactor="0.97" vaporized=""/>
    <tripinfo id="right1_26" depart="9.00" departLane="1to2_0" departPos="5.10" departSpeed="16.67" departDelay="2.00" arrival="117.20" arrivalLane="outr1_0" arrivalPos="492.80" arrivalSpeed="16.67" duration="108.20" routeLength="1494.90" waitingTime="5.20" waitingCount="1" stopTime="0.00" timeLoss="18.49" rerouteNo="0" devices="tripinfo_right1_26" vType="Car@right1_26" speedFactor="0.92" vaporized=""/>
    <tripinfo id="up1_28" depart="11.20" departLane="12to7_0" departPos="5.10" departSpeed="16.67" departDelay="4.20" arrival="119.20" arrivalLane="outn1_0" arrivalPos="496.00" arrivalSpeed="16.67" duration="108.00" routeLength="1494.90" waitingTime="4.60" waitingCount="1" stopTime="0.00" timeLoss="18.31" rerouteNo="0" devices="tripinfo_up1_28" vType="Car@up1_28" speedFactor="1.13" vaporized=""/>
    <tripinfo id="down1_19" depart="9.60" departLane="9to2_0" departPos="5.10" departSpeed="16.67" departDelay="4.60" arrival="122.20" arrivalLane="outs1_0" arrivalPos="496.00" arrivalSpeed="16.67" duration="112.60" routeLength="1494.90" waitingTime="5.20" waitingCount="2" stopTime="0.00" timeLoss="22.74" rerouteNo="0" devices="tripinfo_down1_19" vType="Car@down1_19" speedFactor="1.16" vaporized=""/>
    <tripinfo id="left1_40" depart="13.20" departLane="8to7_0" departPos="5.10" departSpeed="16.67" departDelay="3.20" arrival="124.40" arrivalLane="outl1_0" arrivalPos="492.80" arrivalSpeed="16.67" duration="111.20" routeLength="1494.90" waitingTime="4.00" waitingCount="2" stopTime="0.00" timeLoss="21.52" rerouteNo="0" devices="tripinfo_left1_40" vType="Car@left1_40" speedFactor="1.03" vaporized=""/>
    <tripinfo id="right1_30" depart="10.60" departLane="1to2_0" departPos="5.10" departSpeed="16.67" departDelay="2.60" arrival="127.40" arrivalLane="outr1_0" arrivalPos="492.80" arrivalSpeed="16.67" duration="116.80" routeLength="1494.90" waitingTime="9.20" waitingCount="2" stopTime="0.00" timeLoss="27.11" rerouteNo="0" devices="tripinfo_right1_30" vType="Car@right1_30" speedFactor="1.18" vaporized=""/>
    <tripinfo id="up1_32" depart="12.80" departLane="12to7_0" departPos="5.10" departSpeed="16.67" departDelay="4.80" arrival="129.60" arrivalLane="outn1_0" arrivalPos="496.00" arrivalSpeed="16.67" duration="116.80" routeLength="1494.90" waitingTime="9.40" waitingCount="2" stopTime="0.00" timeLoss="26.94" rerouteNo="0" devices="tripinfo_up1_32" vType="Car@up1_32" speedFactor="1.01" vaporized=""/>
    <tripinfo id="down1_23" depart="11.20" departLane="9to2_0" departPos="5.10" departSpeed="16.67" departDelay="5.20" arrival="132.40" arrivalLane="outs1_0" arrivalPos="496.00" arrivalSpeed="16.67" duration="121.20" routeLength="1494.90" waitingTime="9.20" waitingCount="3" stopTime="0.00" timeLoss="31.52" rerouteNo="0" devices="tripinfo_down1_23" vType="Car@down1_23" speedFactor="0.89" vaporized=""/>
    <tripinfo id="left1_44" depart="14.80" departLane="8to7_0" departPos="5.10" departSpeed="16.67" departDelay="3.80" arrival="134.80" arrivalLane="outl1_0" arrivalPos="492.80" arrivalSpeed="16.67" duration="120.00" routeLength="1494.90" waitingTime="8.20" waitingCount="3" stopTime="0.00" timeLoss="30.31" rerouteNo="0" devices="tripinfo_left1_44" vType="Car@left1_44" speedFactor="1.04" vaporized=""/>
    <tripinfo id="right1_33" depart="12.20" departLane="1to2_0" departPos="5.10" departSpeed="16.67" departDelay="3.20" arrival="137.80" arrivalLane="outr1_0" arrivalPos="492.80" arrivalSpeed="16.67" duration="125.60" routeLength="1494.90" waitingTime="13.60" waitingCount="3" stopTime="0.00" timeLoss="35.92" rerouteNo="0" devices="tripinfo_right1_33" vType="Car@right1_33" speedFactor="1.17" vaporized=""/>
    <tripinfo id="up1_35" depart="14.40" departLane="12to7_0" departPos="5.10" departSpeed="16.67" departDelay="5.40" arrival="139.80" arrivalLane="outn1_0" arrivalPos="496.00" arrivalSpeed="16.67" duration="125.40" routeLength="1494.90" waitingTime="13.20" waitingCount="3" stopTime="0.00" timeLoss="35.54" rerouteNo="0" devices="tripinfo_up1_35" vType="Car@up1_35" speedFactor="1.02" vaporized=""/>
    <tripinfo id="down1_27" depart="12.80" departLane="9to2_0" departPos="5.10" departSpeed="16.67" departDelay="5.80" arrival="142.80" arrivalLane="outs1_0" arrivalPos="496.00" arrivalSpeed="16.67" duration="130.00" routeLength="1494.90" waitingTime="13.00" waitingCount="4" stopTime="0.00" timeLoss="40.32" rerouteNo="0" devices="tripinfo_down1_27" vType="Car@down1_27" speedFactor="0.95" vaporized=""/>
    <tripinfo id="left1_48" depart="16.40" departLane="8to7_0" departPos="5.10" departSpeed="16.67" departDelay="4.40" arrival="145.00" arrivalLane="outl1_0" arrivalPos="492.80" arrivalSpeed="16.67" duration="128.60" routeLength="1494.90" waitingTime="11.80" waitingCount="4" stopTime="0.00" timeLoss="38.92" rerouteNo="0" devices="tripinfo_left1_48" vType="Car@left1_48" speedFactor="0.88" vaporized=""/>
    <tripinfo id="right1_37" depart="13.80" departLane="1to2_0" departPos="5.10" departSpeed="16.67" departDelay="3.80" arrival="148.20" arrivalLane="outr1_0" arrivalPos="492.80" arrivalSpeed="16.67" duration="134.40" routeLength="1494.90" waitingTime="17.40" waitingCount="4" stopTime="0.00" timeLoss="44.72" rerouteNo="0" devices="tripinfo_right1_37" vType="Car@right1_37" speedFactor="1.18" vaporized=""/>
    <tripinfo id="up1_39" depart="16.00" departLane="12to7_0" departPos="5.10" departSpeed="16.67" departDelay="6.00" arrival="150.00" arrivalLane="outn1_0" arrivalPos="496.00" arrivalSpeed="16.67" duration="134.00" routeLength="1494.90" waitingTime="17.00" waitingCount="4" stopTime="0.00" timeLoss="44.32" rerouteNo="0" devices="tripinfo_up1_39" vType="Car@up1_39" speedFactor="0.90" vaporized=""/>
    <tripinfo id="down1_31" depart="14.40" departLane="9to2_0" departPos="5.10" departSpeed="16.67" departDelay="6.40" arrival="153.40" arrivalLane="outs1_0" arrivalPos="496.00" arrivalSpeed="16.67" duration="139.00" routeLength="1494.90" waitingTime="17.00" waitingCount="5" stopTime="0.00" timeLoss="49.14" rerouteNo="0" devices="tripinfo_down1_31" vType="Car@down1_31" speedFactor="1.15" vaporized=""/>
    <tripinfo id="left1_53" depart="18.00" departLane="8to7_0" departPos="5.10" departSpeed="16.67" departDelay="5.00" arrival="155.20" arrivalLane="outl1_0" arrivalPos="492.80" arrivalSpeed="16.67" duration="137.20" routeLength="1494.90" waitingTime="16.00" waitingCount="5" stopTime="0.00" timeLoss="47.51" rerouteNo="0" devices="tripinfo_left1_53" vType="Car@left1_53" speedFactor="1.10" vaporized=""/>
    <tripinfo id="right1_41" depart="15.40" departLane="1to2_0" departPos="5.10" departSpeed="16.67" departDelay="4.40" arrival="158.60" arrivalLane="outr1_0" arrivalPos="492.80" arrivalSpeed="16.67" duration="143.20" routeLength="1494.90" waitingTime="21.40" waitingCount="5" stopTime="0.00" timeLoss="53.51" rerouteNo="0" devices="tripinfo_right1_41" vType="Car@right1_41" speedFactor="0.96" vaporized=""/>
    <tripinfo id="up1_43" depart="17.60" departLane="12to7_0" departPos="5.10" departSpeed="16.67" departDelay="6.60" arrival="160.20" arrivalLane="outn1_0" arrivalPos="496.00" arrivalSpeed="16.67" duration="142.60" routeLength="1494.90" waitingTime="20.80" waitingCount="5" stopTime="0.00" timeLoss="52.93" rerouteNo="0" devices="tripinfo_up1_43" vType="Car@up1_43" speedFactor="1.04" vaporized=""/>
    <tripinfo id="down1_34" depart="16.00" departLane="9to2_0" departPos="5.10" departSpeed="16.67" departDelay="7.00" arrival="163.60" arrivalLane="outs1_0" arrivalPos="496.00" arrivalSpeed="16.67" duration="147.60" routeLength="1494.90" waitingTime="20.60" waitingCount="6" stopTime="0.00" timeLoss="57.92" rerouteNo="0" devices="tripinfo_down1_34" vType="Car@down1_34" speedFactor="0.99" vaporized=""/>
    <tripinfo id="left1_57" depart="19.60" departLane="8to7_0" departPos="5.10" departSpeed="16.67" departDelay="5.60" arrival="165.60" arrivalLane="outl1_0" arrivalPos="492.80" arrivalSpeed="16.67" duration="146.00" routeLength="1494.90" waitingTime="19.80" waitingCount="6" stopTime="0.00" timeLoss="56.33" rerouteNo="0" devices="tripinfo_left1_57" vType="Car@left1_57" speedFactor="1.14" vaporized=""/>
    <tripinfo id="right1_45" depart="17.00" departLane="1to2_0" departPos="5.10" departSpeed="16.67" departDelay="5.00" arrival="169.00" arrivalLane="outr1_0" arrivalPos="492.80" arrivalSpeed="16.67" duration="152.00" routeLength="1494.90" waitingTime="25.20" waitingCount="6" stopTime="0.00" timeLoss="62.31" rerouteNo="0" devices="tripinfo_right1_45" vType="Car@right1_45" speedFactor="1.09" vaporized=""/>
    <tripinfo id="up1_47" depart="19.20" departLane="12to7_0" departPos="5.10" departSpeed="16.67" departDelay="7.20" arrival="170.60" arrivalLane="outn1_0" arrivalPos="496.00" arrivalSpeed="16.67" duration="151.40" routeLength="1494.90" waitingTime="24.80" waitingCount="6" stopTime="0.00" timeLoss="61.72" rerouteNo="0" devices="tripinfo_up1_47" vType="Car@up1_47" speedFactor="0.90" vaporized=""/>
    <tripinfo id="down1_38" depart="17.60" departLane="9to2_0" departPos="5.10" departSpeed="16.67" departDelay="7.60" arrival="174.00" arrivalLane="outs1_0" arrivalPos="496.00" arrivalSpeed="16.67" duration="156.40" routeLength="1494.90" waitingTime="25.00" waitingCount="7" stopTime="0.00" timeLoss="66.73" rerouteNo="0" devices="tripinfo_down1_38" vType="Car@down1_38" speedFactor="1.10" vaporized=""/>
    <tripinfo id="left1_61" depart="21.20" departLane="8to7_0" departPos="5.10" departSpeed="16.67" departDelay="6.20" arrival="176.00" arrivalLane="outl1_0" arrivalPos="492.80" arrivalSpeed="16.67" duration="154.80" routeLength="1494.90" waitingTime="23.40" waitingCount="7" stopTime="0.00" timeLoss="65.11" rerouteNo="0" devices="tripinfo_left1_61" vType="Car@left1_61" speedFactor="1.12" vaporized=""/>
    <tripinfo id="right1_50" depart="18.60" departLane="1to2_0" departPos="5.10" departSpeed="16.62" departDelay="5.60" arrival="179.60" arrivalLane="outr1_0" arrivalPos="492.80" arrivalSpeed="16.62" duration="161.00" routeLength="1494.90" waitingTime="28.60" waitingCount="7" stopTime="0.00" timeLoss="70.99" rerouteNo="0" devices="tripinfo_right1_50" vType="Car@right1_50" speedFactor="0.85" vaporized=""/>
    <tripinfo id="up1_49_emergency" depart="20.80" departLane="12to7_0" departPos="5.10" departSpeed="16.53" departDelay="7.80" arrival="181.40" arrivalLane="outn1_0" arrivalPos="496.00" arrivalSpeed="16.53" duration="160.60" routeLength="1494.90" waitingTime="27.80" waitingCount="7" stopTime="0.00" timeLoss="69.98" rerouteNo="0" devices="tripinfo_up1_49_emergency" vType="Car@up1_49_emergency" speedFactor="0.85" vaporized=""/>
    <tripinfo id="down1_42" depart="19.20" departLane="9to2_0" departPos="5.10" departSpeed="16.67" departDelay="8.20" arrival="184.40" arrivalLane="outs1_0" arrivalPos="496.00" arrivalSpeed="16.67" duration="165.20" routeLength="1494.90" waitingTime="28.80" waitingCount="8" stopTime="0.00" timeLoss="75.53" rerouteNo="0" devices="tripinfo_down1_42" vType="Car@down1_42" speedFactor="1.09" vaporized=""/>
    <tripinfo id="left1_65" depart="22.80" departLane="8to7_0" departPos="5.10" departSpeed="16.67" departDelay="6.80" arrival="186.20" arrivalLane="outl1_0" arrivalPos="492.80" arrivalSpeed="16.67" duration="163.40" routeLength="1494.90" waitingTime="27.40" waitingCount="8" stopTime="0.00" timeLoss="73.71" rerouteNo="0" devices="tripinfo_left1_65" vType="Car@left1_65" speedFactor="0.88" vaporized=""/>
    <tripinfo id="right1_54" depart="20.20" departLane="1to2_0" departPos="5.10" departSpeed="16.67" departDelay="6.20" arrival="189.80" arrivalLane="outr1_0" arrivalPos="492.80" arrivalSpeed="16.67" duration="169.60" routeLength="1494.90" waitingTime="32.60" waitingCount="8" stopTime="0.00" timeLoss="79.92" rerouteNo="0" devices="tripinfo_right1_54" vType="Car@right1_54" speedFactor="1.00" vaporized=""/>
    <tripinfo id="up1_52" depart="22.40" departLane="12to7_0" departPos="5.10" departSpeed="16.67" departDelay="9.40" arrival="191.40" arrivalLane="outn1_0" arrivalPos="496.00" arrivalSpeed="16.67" duration="169.00" routeLength="1494.90" waitingTime="32.20" waitingCount="8" stopTime="0.00" timeLoss="79.14" rerouteNo="0" devices="tripinfo_up1_52" vType="Car@up1_52" speedFactor="1.02" vaporized=""/>
    <tripinfo id="down1_46" depart="20.80" departLane="9to2_0" departPos="5.10" departSpeed="16.67" departDelay="8.80" arrival="194.80" arrivalLane="outs1_0" arrivalPos="496.00" arrivalSpeed="16.67" duration="174.00" routeLength="1494.90" waitingTime="32.80" waitingCount="9" stopTime="0.00" timeLoss="84.32" rerouteNo="0" devices="tripinfo_down1_46" vType="Car@down1_46" speedFactor="1.00" vaporized=""/>
    <tripinfo id="left1_68" depart="24.40" departLane="8to7_0" departPos="5.10" departSpeed="16.67" departDelay="7.40" arrival="196.60" arrivalLane="outl1_0" arrivalPos="492.80" arrivalSpeed="16.67" duration="172.20" routeLength="1494.90" waitingTime="31.80" waitingCount="9" stopTime="0.00" timeLoss="82.52" rerouteNo="0" devices="tripinfo_left1_68" vType="Car@left1_68" speedFactor="1.04" vaporized=""/>
    <tripinfo id="right1_58" depart="21.80" departLane="1to2_0" departPos="5.10" departSpeed="16.67" departDelay="6.80" arrival="200.20" arrivalLane="outr1_0" arrivalPos="492.80" arrivalSpeed="16.67" duration="178.40" routeLength="1494.90" waitingTime="36.00" waitingCount="9" stopTime="0.00" timeLoss="88.73" rerouteNo="0" devices="tripinfo_right1_58" vType="Car@right1_58" speedFactor="1.02" vaporized=""/>
    <tripinfo id="up1_56" depart="24.00" departLane="12to7_0" departPos="5.10" departSpeed="16.67" departDelay="10.00" arrival="201.80" arrivalLane="outn1_0" arrivalPos="496.00" arrivalSpeed="16.67" duration="177.80" routeLength="1494.90" waitingTime="36.20" waitingCount="9" stopTime="0.00" timeLoss="87.94" rerouteNo="0" devices="tripinfo_up1_56" vType="Car@up1_56" speedFactor="0.90" vaporized=""/>
    <tripinfo id="down1_51" depart="22.40" departLane="9to2_0" departPos="5.10" departSpeed="16.67" departDelay="9.40" arrival="205.20" arrivalLane="outs1_0" arrivalPos="496.00" arrivalSpeed="16.67" duration="182.80" routeLength="1494.90" waitingTime="36.80" waitingCount="10" stopTime="0.00" timeLoss="93.13" rerouteNo="0" devices="tripinfo_down1_51" vType="Car@down1_51" speedFactor="1.17" vaporized=""/>
    <tripinfo id="left1_72" depart="26.00" departLane="8to7_0" departPos="5.10" departSpeed="16.67" departDelay="8.00" arrival="207.00" arrivalLane="outl1_0" arrivalPos="492.80" arrivalSpeed="16.67" duration="181.00" routeLength="1494.90" waitingTime="35.80" waitingCount="9" stopTime="0.00" timeLoss="91.31" rerouteNo="0" devices="tripinfo_left1_72" vType="Car@left1_72" speedFactor="0.94" vaporized=""/>
    <tripinfo id="right1_62" depart="23.40" departLane="1to2_0" departPos="5.10" departSpeed="16.67" departDelay="7.40" arrival="210.60" arrivalLane="outr1_0" arrivalPos="492.80" arrivalSpeed="16.67" duration="187.20" routeLength="1494.90" waitingTime="40.60" waitingCount="10" stopTime="0.00" timeLoss="97.51" rerouteNo="0" devices="tripinfo_right1_62" vType="Car@right1_62" speedFactor="1.02" vaporized=""/>
    <tripinfo id="up1_60" depart="25.60" departLane="12to7_0" departPos="5.10" departSpeed="16.67" departDelay="10.60" arrival="212.20" arrivalLane="outn1_0" arrivalPos="496.00" arrivalSpeed="16.67" duration="186.60" routeLength="1494.90" waitingTime="40.20" waitingCount="10" stopTime="0.00" timeLoss="96.74" rerouteNo="0" devices="tripinfo_up1_60" vType="Car@up1_60" speedFactor="1.08" vaporized=""/>
    <tripinfo id="down1_55" depart="24.00" departLane="9to2_0" departPos="5.10" departSpeed="16.67" departDelay="10.00" arrival="215.60" arrivalLane="outs1_0" arrivalPos="496.00" arrivalSpeed="16.67" duration="191.60" routeLength="1494.90" waitingTime="40.80" waitingCount="11" stopTime="0.00" timeLoss="101.92" rerouteNo="0" devices="tripinfo_down1_55" vType="Car@down1_55" speedFactor="1.00" vaporized=""/>
    <tripinfo id="left1_76" depart="27.60" departLane="8to7_0" departPos="5.10" departSpeed="16.67" departDelay="8.60" arrival="217.40" arrivalLane="outl1_0" arrivalPos="492.80" arrivalSpeed="16.67" duration="189.80" routeLength="1494.90" waitingTime="41.40" waitingCount="10" stopTime="0.00" timeLoss="100.11" rerouteNo="0" devices="tripinfo_left1_76" vType="Car@left1_76" speedFactor="1.03" vaporized=""/>
    <tripinfo id="right1_66" depart="25.00" departLane="1to2_0" departPos="5.10" departSpeed="16.67" departDelay="8.00" arrival="221.00" arrivalLane="outr1_0" arrivalPos="492.80" arrivalSpeed="16.67" duration="196.00" routeLength="1494.90" waitingTime="44.60" waitingCount="11" stopTime="0.00" timeLoss="106.32" rerouteNo="0" devices="tripinfo_right1_66" vType="Car@right1_66" speedFactor="0.91" vaporized=""/>
    <tripinfo id="up1_64" depart="27.20" departLane="12to7_0" departPos="5.10" departSpeed="16.67" departDelay="11.20" arrival="222.60" arrivalLane="outn1_0" arrivalPos="496.00" arrivalSpeed="16.67" duration="195.40" routeLength="1494.90" waitingTime="44.00" waitingCount="11" stopTime="0.00" timeLoss="105.54" rerouteNo="0" devices="tripinfo_up1_64" vType="Car@up1_64" speedFactor="0.94" vaporized=""/>
    <tripinfo id="down1_59" depart="25.60" departLane="9to2_0" departPos="5.10" departSpeed="16.67" departDelay="10.60" arrival="226.00" arrivalLane="outs1_0" arrivalPos="496.00" arrivalSpeed="16.67" duration="200.40" routeLength="1494.90" waitingTime="44.80" waitingCount="12" stopTime="0.00" timeLoss="110.73" rerouteNo="0" devices="tripinfo_down1_59" vType="Car@down1_59" speedFactor="0.97" vaporized=""/>
    <tripinfo id="left1_79" depart="29.20" departLane="8to7_0" departPos="5.10" departSpeed="16.67" departDelay="9.20" arrival="227.80" arrivalLane="outl1_0" arrivalPos="492.80" arrivalSpeed="16.67" duration="198.60" routeLength="1494.90" waitingTime="45.60" waitingCount="11" stopTime="0.00" timeLoss="108.92" rerouteNo="0" devices="tripinfo_left1_79" vType="Car@left1_79" speedFactor="1.09" vaporized=""/>
    <tripinfo id="right1_69" depart="26.60" departLane="1to2_0" departPos="5.10" departSpeed="16.67" departDelay="8.60" arrival="231.40" arrivalLane="outr1_0" arrivalPos="492.80" arrivalSpeed="16.67" duration="204.80" routeLength="1494.90" waitingTime="48.40" waitingCount="12" stopTime="0.00" timeLoss="115.12" rerouteNo="0" devices="tripinfo_right1_69" vType="Car@right1_69" speedFactor="1.02" vaporized=""/>