<?xml version="1.0" encoding="UTF-8"?>

<!-- generated on 2021-12-01 19:17:41 by Eclipse SUMO GUI Version 1.10.0
<configuration xmlns:xsi="http://www.w3.org/2001/XMLSchema-instance" xsi:noNamespaceSchemaLocation="http://sumo.dlr.de/xsd/sumoConfiguration.xsd">

    <input>
        <net-file value="data/cross.net.xml"/>
        <route-files value="data/cross.rou.xml"/>
    </input>

    <output>
        <tripinfo-output value="data/out-tripinfo.xml"/>
    </output>

    <time>
        <begin value="0"/>
        <step-length value="0.2"/>
    </time>

    <processing>
        <collision.mingap-factor value="0"/>
    </processing>

    <report>
        <verbose value="true"/>
        <no-step-log value="true"/>
    </report>

    <traci_server>
        <remote-port value="55889"/>
    </traci_server>

    <gui_only>
        <tracker-interval value="0.2"/>
    </gui_only>

</configuration>
-->

<tripinfos xmlns:xsi="http://www.w3.org/2001/XMLSchema-instance" xsi:noNamespaceSchemaLocation="http://sumo.dlr.de/xsd/tripinfo_file.xsd">
    <tripinfo id="left_3" depart="2.00" departLane="8to7_0" departPos="5.10" departSpeed="15.04" departDelay="0.00" arrival="101.40" arrivalLane="outl_0" arrivalPos="492.80" arrivalSpeed="15.04" duration="99.40" routeLength="1494.90" waitingTime="0.00" waitingCount="0" stopTime="0.00" timeLoss="0.00" rerouteNo="0" devices="tripinfo_left_3" vType="Car@left_3" speedFactor="1.08" vaporized=""/>
    <tripinfo id="right_0" depart="0.00" departLane="1to2_0" departPos="5.10" departSpeed="14.72" departDelay="0.00" arrival="101.60" arrivalLane="outr_0" arrivalPos="492.80" arrivalSpeed="14.72" duration="101.60" routeLength="1494.90" waitingTime="0.00" waitingCount="0" stopTime="0.00" timeLoss="0.00" rerouteNo="0" devices="tripinfo_right_0" vType="Car@right_0" speedFactor="1.06" vaporized=""/>
    <tripinfo id="right_1" depart="1.20" departLane="1to2_0" departPos="5.10" departSpeed="13.03" departDelay="0.20" arrival="116.00" arrivalLane="outr_0" arrivalPos="492.80" arrivalSpeed="13.03" duration="114.80" routeLength="1494.90" waitingTime="0.00" waitingCount="0" stopTime="0.00" timeLoss="0.07" rerouteNo="0" devices="tripinfo_right_1" vType="Car@right_1" speedFactor="0.94" vaporized=""/>
    <tripinfo id="right_4" depart="4.00" departLane="1to2_0" departPos="5.10" departSpeed="14.31" departDelay="0.00" arrival="116.80" arrivalLane="outr_0" arrivalPos="492.80" arrivalSpeed="13.22" duration="112.80" routeLength="1494.90" waitingTime="0.00" waitingCount="0" stopTime="0.00" timeLoss="8.24" rerouteNo="0" devices="tripinfo_right_4" vType="Car@right_4" speedFactor="1.03" vaporized=""/>
    <tripinfo id="right_8" depart="7.00" departLane="1to2_0" departPos="5.10" departSpeed="13.03" departDelay="0.00" arrival="121.80" arrivalLane="outr_0" arrivalPos="492.80" arrivalSpeed="13.03" duration="114.80" routeLength="1494.90" waitingTime="0.00" waitingCount="0" stopTime="0.00" timeLoss="0.05" rerouteNo="0" devices="tripinfo_right_8" vType="Car@right_8" speedFactor="0.94" vaporized=""/>
    <tripinfo id="right_13" depart="13.00" departLane="1to2_0" departPos="5.10" departSpeed="15.60" departDelay="0.00" arrival="122.60" arrivalLane="outr_0" arrivalPos="492.80" arrivalSpeed="13.34" duration="109.60" routeLength="1494.90" waitingTime="0.00" waitingCount="0" stopTime="0.00" timeLoss="13.63" rerouteNo="0" devices="tripinfo_right_13" vType="Car@right_13" speedFactor="1.12" vaporized=""/>
    <tripinfo id="right_14_emergency" depart="15.00" departLane="1to2_0" departPos="5.10" departSpeed="13.77" departDelay="0.00" arrival="124.00" arrivalLane="outr_0" arrivalPos="492.80" arrivalSpeed="13.61" duration="109.00" routeLength="1494.90" waitingTime="0.00" waitingCount="0" stopTime="0.00" timeLoss="0.41" rerouteNo="0" devices="tripinfo_right_14_emergency" vType="Car@right_14_emergency" speedFactor="0.99" vaporized=""/>
    <tripinfo id="left_7" depart="6.00" departLane="8to7_0" departPos="5.10" departSpeed="12.31" departDelay="0.00" arrival="128.40" arrivalLane="outl_0" arrivalPos="492.80" arrivalSpeed="12.31" duration="122.40" routeLength="1494.90" waitingTime="0.00" waitingCount="0" stopTime="0.00" timeLoss="0.81" rerouteNo="0" devices="tripinfo_left_7" vType="Car@left_7" speedFactor="0.89" vaporized=""/>
    <tripinfo id="left_10" depart="8.80" departLane="8to7_0" departPos="5.10" departSpeed="15.15" departDelay="1.80" arrival="129.00" arrivalLane="outl_0" arrivalPos="492.80" arrivalSpeed="12.57" duration="120.20" routeLength="1494.90" waitingTime="0.00" waitingCount="0" stopTime="0.00" timeLoss="21.49" rerouteNo="0" devices="tripinfo_left_10" vType="Car@left_10" speedFactor="1.09" vaporized=""/>
    <tripinfo id="left_12" depart="10.20" departLane="8to7_0" departPos="5.10" departSpeed="14.54" departDelay="1.20" arrival="129.80" arrivalLane="outl_0" arrivalPos="492.80" arrivalSpeed="12.61" duration="119.60" routeLength="1494.90" waitingTime="0.00" waitingCount="0" stopTime="0.00" timeLoss="16.69" rerouteNo="0" devices="tripinfo_left_12" vType="Car@left_12" speedFactor="1.05" vaporized=""/>
    <tripinfo id="up_2" depart="2.00" departLane="12to7_0" departPos="5.10" departSpeed="14.03" departDelay="0.00" arrival="133.60" arrivalLane="outn_0" arrivalPos="496.00" arrivalSpeed="14.03" duration="131.60" routeLength="1494.90" waitingTime="0.60" waitingCount="2" stopTime="1.40" timeLoss="23.51" rerouteNo="0" devices="tripinfo_up_2" vType="Car@up_2" speedFactor="1.01" vaporized=""/>
    <tripinfo id="up_37" depart="38.00" departLane="12to7_0" departPos="5.10" departSpeed="16.39" departDelay="0.00" arrival="137.80" arrivalLane="outn_0" arrivalPos="496.00" arrivalSpeed="16.33" duration="99.80" routeLength="1483.70" waitingTime="0.00" waitingCount="0" stopTime="0.00" timeLoss="12.71" rerouteNo="0" devices="tripinfo_up_37" vType="Car@up_37" speedFactor="1.18" vaporized=""/>
    <tripinfo id="right_16" depart="16.20" departLane="1to2_0" departPos="5.10" departSpeed="12.20" departDelay="0.20" arrival="139.20" arrivalLane="outr_0" arrivalPos="492.80" arrivalSpeed="12.20" duration="123.00" routeLength="1494.90" waitingTime="0.00" waitingCount="0" stopTime="0.00" timeLoss="0.30" rerouteNo="0" devices="tripinfo_right_16" vType="Car@right_16" speedFactor="0.88" vaporized=""/>
    <tripinfo id="down_18_flaw" depart="19.00" departLane="9to2_0" departPos="5.10" departSpeed="13.00" departDelay="0.00" arrival="139.40" arrivalLane="outs_0" arrivalPos="496.00" arrivalSpeed="13.00" duration="120.40" routeLength="1494.90" waitingTime="0.00" waitingCount="0" stopTime="0.00" timeLoss="5.32" rerouteNo="0" devices="tripinfo_down_18_flaw" vType="Car@down_18_flaw" speedFactor="0.94" vaporized=""/>
    <tripinfo id="down_19" depart="22.00" departLane="9to2_0" departPos="5.10" departSpeed="16.09" departDelay="3.00" arrival="140.00" arrivalLane="outs_0" arrivalPos="496.00" arrivalSpeed="13.32" duration="118.00" routeLength="1494.90" waitingTime="2.20" waitingCount="1" stopTime="0.00" timeLoss="25.02" rerouteNo="0" devices="tripinfo_down_19" vType="Car@down_19" speedFactor="1.16" vaporized=""/>
    <tripinfo id="right_21" depart="23.00" departLane="1to2_0" departPos="5.10" departSpeed="14.03" departDelay="0.00" arrival="140.20" arrivalLane="outr_0" arrivalPos="492.80" arrivalSpeed="13.23" duration="117.20" routeLength="1494.90" waitingTime="0.00" waitingCount="0" stopTime="0.00" timeLoss="10.55" rerouteNo="0" devices="tripinfo_right_21" vType="Car@right_21" speedFactor="1.01" vaporized=""/>
    <tripinfo id="down_22" depart="23.00" departLane="9to2_0" departPos="5.10" departSpeed="13.54" departDelay="0.00" arrival="149.40" arrivalLane="outs_0" arrivalPos="496.00" arrivalSpeed="13.54" duration="126.40" routeLength="1494.90" waitingTime="1.80" waitingCount="2" stopTime="0.00" timeLoss="15.95" rerouteNo="0" devices="tripinfo_down_22" vType="Car@down_22" speedFactor="0.98" vaporized=""/>
    <tripinfo id="up_5" depart="4.00" departLane="12to7_0" departPos="5.10" departSpeed="11.54" departDelay="0.00" arrival="156.00" arrivalLane="outn_0" arrivalPos="496.00" arrivalSpeed="11.54" duration="152.00" routeLength="1494.90" waitingTime="0.80" waitingCount="2" stopTime="2.20" timeLoss="20.12" rerouteNo="0" devices="tripinfo_up_5" vType="Car@up_5" speedFactor="0.83" vaporized=""/>
    <tripinfo id="up_6" depart="7.00" departLane="12to7_0" departPos="5.10" departSpeed="14.53" departDelay="1.00" arrival="156.60" arrivalLane="outn_0" arrivalPos="496.00" arrivalSpeed="11.83" duration="149.60" routeLength="1494.90" waitingTime="5.00" waitingCount="2" stopTime="0.00" timeLoss="46.65" rerouteNo="0" devices="tripinfo_up_6" vType="Car@up_6" speedFactor="1.05" vaporized=""/>
    <tripinfo id="left_17" depart="18.00" departLane="8to7_0" departPos="5.10" departSpeed="13.08" departDelay="0.00" arrival="157.80" arrivalLane="outl_0" arrivalPos="492.80" arrivalSpeed="13.08" duration="139.80" routeLength="1494.90" waitingTime="0.40" waitingCount="1" stopTime="14.00" timeLoss="11.33" rerouteNo="0" devices="tripinfo_left_17" vType="Car@left_17" speedFactor="0.94" vaporized=""/>
    <tripinfo id="left_20" depart="20.00" departLane="8to7_0" departPos="5.10" departSpeed="14.14" departDelay="0.00" arrival="158.60" arrivalLane="outl_0" arrivalPos="492.80" arrivalSpeed="13.25" duration="138.60" routeLength="1494.90" waitingTime="15.80" waitingCount="1" stopTime="0.00" timeLoss="32.72" rerouteNo="0" devices="tripinfo_left_20" vType="Car@left_20" speedFactor="1.02" vaporized=""/>
    <tripinfo id="up_9" depart="8.00" departLane="12to7_0" departPos="5.10" departSpeed="11.90" departDelay="1.00" arrival="160.60" arrivalLane="outn_0" arrivalPos="496.00" arrivalSpeed="11.90" duration="152.60" routeLength="1494.90" waitingTime="5.80" waitingCount="2" stopTime="0.00" timeLoss="26.90" rerouteNo="0" devices="tripinfo_up_9" vType="Car@up_9" speedFactor="0.86" vaporized=""/>
    <tripinfo id="up_11" depart="10.80" departLane="12to7_0" departPos="5.10" departSpeed="14.26" departDelay="2.80" arrival="161.20" arrivalLane="outn_0" arrivalPos="496.00" arrivalSpeed="12.14" duration="150.40" routeLength="1494.90" waitingTime="9.00" waitingCount="2" stopTime="0.00" timeLoss="45.53" rerouteNo="0" devices="tripinfo_up_11" vType="Car@up_11" speedFactor="1.03" vaporized=""/>
    <tripinfo id="up_15" depart="15.00" departLane="12to7_0" departPos="5.10" departSpeed="12.87" departDelay="0.00" arrival="163.00" arrivalLane="outn_0" arrivalPos="496.00" arrivalSpeed="12.73" duration="148.00" routeLength="1494.90" waitingTime="8.80" waitingCount="2" stopTime="0.00" timeLoss="31.80" rerouteNo="0" devices="tripinfo_up_15" vType="Car@up_15" speedFactor="0.93" vaporized=""/>
    <tripinfo id="left_27" depart="27.00" departLane="8to7_0" departPos="5.10" departSpeed="13.18" departDelay="0.00" arrival="163.00" arrivalLane="outl_0" arrivalPos="492.80" arrivalSpeed="13.18" duration="136.00" routeLength="1494.90" waitingTime="10.40" waitingCount="1" stopTime="0.00" timeLoss="22.56" rerouteNo="0" devices="tripinfo_left_27" vType="Car@left_27" speedFactor="0.95" vaporized=""/>
    <tripinfo id="up_32" depart="31.00" departLane="12to7_0" departPos="5.10" departSpeed="13.96" departDelay="0.00" arrival="163.80" arrivalLane="outn_0" arrivalPos="496.00" arrivalSpeed="13.02" duration="132.80" routeLength="1494.90" waitingTime="6.60" waitingCount="1" stopTime="0.00" timeLoss="25.66" rerouteNo="0" devices="tripinfo_up_32" vType="Car@up_32" speedFactor="1.01" vaporized=""/>
    <tripinfo id="left_35" depart="35.00" departLane="8to7_0" departPos="5.10" departSpeed="14.16" departDelay="0.00" arrival="163.80" arrivalLane="outl_0" arrivalPos="492.80" arrivalSpeed="13.33" duration="128.80" routeLength="1494.90" waitingTime="7.80" waitingCount="1" stopTime="0.00" timeLoss="23.20" rerouteNo="0" devices="tripinfo_left_35" vType="Car@left_35" speedFactor="1.02" vaporized=""/>
    <tripinfo id="up_33" depart="33.60" departLane="12to7_0" departPos="5.10" departSpeed="16.28" departDelay="1.60" arrival="164.40" arrivalLane="outn_0" arrivalPos="496.00" arrivalSpeed="13.20" duration="130.80" routeLength="1494.90" waitingTime="9.40" waitingCount="1" stopTime="0.00" timeLoss="38.93" rerouteNo="0" devices="tripinfo_up_33" vType="Car@up_33" speedFactor="1.17" vaporized=""/>
    <tripinfo id="up_34_emergency" depart="34.40" departLane="12to7_0" departPos="5.10" departSpeed="13.82" departDelay="0.40" arrival="169.20" arrivalLane="outn_0" arrivalPos="496.00" arrivalSpeed="13.81" duration="134.80" routeLength="1494.90" waitingTime="12.00" waitingCount="1" stopTime="0.00" timeLoss="26.52" rerouteNo="0" devices="tripinfo_up_34_emergency" vType="Car@up_34_emergency" speedFactor="0.99" vaporized=""/>
    <tripinfo id="down_24" depart="25.00" departLane="9to2_0" departPos="5.10" departSpeed="11.47" departDelay="0.00" arrival="178.80" arrivalLane="outs_0" arrivalPos="496.00" arrivalSpeed="11.47" duration="153.80" routeLength="1494.90" waitingTime="0.40" waitingCount="1" stopTime="3.40" timeLoss="19.88" rerouteNo="0" devices="tripinfo_down_24" vType="Car@down_24" speedFactor="0.83" vaporized=""/>
    <tripinfo id="down_28" depart="28.60" departLane="9to2_0" departPos="5.10" departSpeed="15.72" departDelay="0.60" arrival="179.40" arrivalLane="outs_0" arrivalPos="496.00" arrivalSpeed="11.81" duration="150.80" routeLength="1494.90" waitingTime="6.40" waitingCount="2" stopTime="0.00" timeLoss="55.65" rerouteNo="0" devices="tripinfo_down_28" vType="Car@down_28" speedFactor="1.13" vaporized=""/>
    <tripinfo id="down_29" depart="29.40" departLane="9to2_0" departPos="5.10" departSpeed="12.94" departDelay="0.40" arrival="181.00" arrivalLane="outs_0" arrivalPos="496.00" arrivalSpeed="12.70" duration="151.60" routeLength="1494.90" waitingTime="8.80" waitingCount="2" stopTime="0.00" timeLoss="36.03" rerouteNo="0" devices="tripinfo_down_29" vType="Car@down_29" speedFactor="0.93" vaporized=""/>
    <tripinfo id="right_23" depart="24.20" departLane="1to2_0" departPos="5.10" departSpeed="12.36" departDelay="0.20" arrival="182.40" arrivalLane="outr_0" arrivalPos="492.80" arrivalSpeed="12.36" duration="158.20" routeLength="1494.90" waitingTime="0.80" waitingCount="2" stopTime="15.60" timeLoss="21.59" rerouteNo="0" devices="tripinfo_right_23" vType="Car@right_23" speedFactor="0.89" vaporized=""/>
    <tripinfo id="right_25" depart="26.00" departLane="1to2_0" departPos="5.10" departSpeed="12.12" departDelay="0.00" arrival="186.80" arrivalLane="outr_0" arrivalPos="492.80" arrivalSpeed="12.12" duration="160.80" routeLength="1494.90" waitingTime="16.20" waitingCount="1" stopTime="0.00" timeLoss="37.31" rerouteNo="0" devices="tripinfo_right_25" vType="Car@right_25" speedFactor="0.87" vaporized=""/>
    <tripinfo id="left_39" depart="43.00" departLane="8to7_0" departPos="5.10" departSpeed="12.51" departDelay="0.00" arrival="187.40" arrivalLane="outl_0" arrivalPos="492.80" arrivalSpeed="12.51" duration="144.40" routeLength="1494.90" waitingTime="0.40" waitingCount="1" stopTime="3.80" timeLoss="21.01" rerouteNo="0" devices="tripinfo_left_39" vType="Car@left_39" speedFactor="0.90" vaporized=""/>
    <tripinfo id="left_40" depart="45.40" departLane="8to7_0" departPos="5.10" departSpeed="14.31" departDelay="1.40" arrival="188.20" arrivalLane="outl_0" arrivalPos="492.80" arrivalSpeed="12.84" duration="142.80" routeLength="1494.90" waitingTime="6.00" waitingCount="1" stopTime="0.00" timeLoss="38.22" rerouteNo="0" devices="tripinfo_left_40" vType="Car@left_40" speedFactor="1.03" vaporized=""/>
    <tripinfo id="right_26" depart="28.00" departLane="1to2_0" departPos="5.10" departSpeed="12.74" departDelay="1.00" arrival="188.60" arrivalLane="outr_0" arrivalPos="492.80" arrivalSpeed="12.65" duration="160.60" routeLength="1494.90" waitingTime="19.40" waitingCount="2" stopTime="0.00" timeLoss="43.12" rerouteNo="0" devices="tripinfo_right_26" vType="Car@right_26" speedFactor="0.92" vaporized=""/>
    <tripinfo id="right_36" depart="38.00" departLane="1to2_0" departPos="5.10" departSpeed="13.52" departDelay="0.00" arrival="190.20" arrivalLane="outr_0" arrivalPos="492.80" arrivalSpeed="13.35" duration="152.20" routeLength="1494.90" waitingTime="17.00" waitingCount="2" stopTime="0.00" timeLoss="41.45" rerouteNo="0" devices="tripinfo_right_36" vType="Car@right_36" speedFactor="0.97" vaporized=""/>
    <tripinfo id="right_38" depart="41.00" departLane="1to2_0" departPos="5.10" departSpeed="15.31" departDelay="0.00" arrival="190.80" arrivalLane="outr_0" arrivalPos="492.80" arrivalSpeed="13.73" duration="149.80" routeLength="1494.90" waitingTime="21.20" waitingCount="2" stopTime="0.00" timeLoss="52.14" rerouteNo="0" devices="tripinfo_right_38" vType="Car@right_38" speedFactor="1.10" vaporized=""/>
    <tripinfo id="left_41" depart="46.80" departLane="8to7_0" departPos="5.10" departSpeed="13.29" departDelay="0.80" arrival="191.40" arrivalLane="outl_0" arrivalPos="492.80" arrivalSpeed="13.27" duration="144.60" routeLength="1494.90" waitingTime="8.40" waitingCount="1" stopTime="0.00" timeLoss="31.98" rerouteNo="0" devices="tripinfo_left_41" vType="Car@left_41" speedFactor="0.96" vaporized=""/>
    <tripinfo id="left_46" depart="50.00" departLane="8to7_0" departPos="5.10" departSpeed="13.85" departDelay="0.00" arrival="192.80" arrivalLane="outl_0" arrivalPos="492.80" arrivalSpeed="13.72" duration="142.80" routeLength="1494.90" waitingTime="10.00" waitingCount="1" stopTime="0.00" timeLoss="34.88" rerouteNo="0" devices="tripinfo_left_46" vType="Car@left_46" speedFactor="1.00" vaporized=""/>
    <tripinfo id="right_43" depart="48.00" departLane="1to2_0" departPos="5.10" departSpeed="14.41" departDelay="0.00" arrival="193.80" arrivalLane="outr_0" arrivalPos="492.80" arrivalSpeed="14.38" duration="145.80" routeLength="1494.90" waitingTime="16.40" waitingCount="2" stopTime="0.00" timeLoss="41.97" rerouteNo="0" devices="tripinfo_right_43" vType="Car@right_43" speedFactor="1.04" vaporized=""/>
    <tripinfo id="down_30" depart="32.60" departLane="9to2_0" departPos="5.10" departSpeed="16.37" departDelay="2.60" arrival="195.80" arrivalLane="outs_0" arrivalPos="496.00" arrivalSpeed="16.33" duration="163.20" routeLength="1494.90" waitingTime="3.00" waitingCount="4" stopTime="22.60" timeLoss="49.09" rerouteNo="0" devices="tripinfo_down_30" vType="Car@down_30" speedFactor="1.18" vaporized=""/>
    <tripinfo id="up_42" depart="47.00" departLane="12to7_0" departPos="5.10" departSpeed="15.17" departDelay="0.00" arrival="199.80" arrivalLane="outn_0" arrivalPos="496.00" arrivalSpeed="15.15" duration="152.80" routeLength="1494.90" waitingTime="1.00" waitingCount="2" stopTime="27.20" timeLoss="26.96" rerouteNo="0" devices="tripinfo_up_42" vType="Car@up_42" speedFactor="1.09" vaporized=""/>
    <tripinfo id="up_45" depart="49.00" departLane="12to7_0" departPos="5.10" departSpeed="15.11" departDelay="0.00" arrival="202.80" arrivalLane="outn_0" arrivalPos="496.00" arrivalSpeed="15.09" duration="153.80" routeLength="1494.90" waitingTime="23.80" waitingCount="3" stopTime="0.00" timeLoss="54.86" rerouteNo="0" devices="tripinfo_up_45" vType="Car@up_45" speedFactor="1.09" vaporized=""/>
    <tripinfo id="left_52_flaw" depart="62.00" departLane="8to7_0" departPos="5.10" departSpeed="14.12" departDelay="0.00" arrival="204.20" arrivalLane="outl_0" arrivalPos="492.80" arrivalSpeed="14.12" duration="142.20" routeLength="1494.90" waitingTime="4.80" waitingCount="3" stopTime="0.00" timeLoss="36.16" rerouteNo="0" devices="tripinfo_left_52_flaw" vType="Car@left_52_flaw" speedFactor="1.02" vaporized=""/>
    <tripinfo id="down_31" depart="34.20" departLane="9to2_0" departPos="5.10" departSpeed="16.04" departDelay="3.20" arrival="206.40" arrivalLane="outs_0" arrivalPos="496.00" arrivalSpeed="16.01" duration="172.20" routeLength="1494.90" waitingTime="28.40" waitingCount="5" stopTime="0.00" timeLoss="78.92" rerouteNo="0" devices="tripinfo_down_31" vType="Car@down_31" speedFactor="1.15" vaporized=""/>
    <tripinfo id="down_44" depart="48.00" departLane="9to2_0" departPos="5.10" departSpeed="14.49" departDelay="0.00" arrival="211.80" arrivalLane="outs_0" arrivalPos="496.00" arrivalSpeed="14.49" duration="163.80" routeLength="1494.90" waitingTime="24.80" waitingCount="3" stopTime="0.00" timeLoss="60.46" rerouteNo="0" devices="tripinfo_down_44" vType="Car@down_44" speedFactor="1.04" vaporized=""/>
    <tripinfo id="up_50" depart="59.00" departLane="12to7_0" departPos="5.10" departSpeed="11.87" departDelay="0.00" arrival="212.80" arrivalLane="outn_0" arrivalPos="496.00" arrivalSpeed="11.87" duration="153.80" routeLength="1494.90" waitingTime="3.60" waitingCount="2" stopTime="0.00" timeLoss="27.85" rerouteNo="0" devices="tripinfo_up_50" vType="Car@up_50" speedFactor="0.85" vaporized=""/>
    <tripinfo id="up_53" depart="63.00" departLane="12to7_0" departPos="5.10" departSpeed="15.22" departDelay="0.00" arrival="213.60" arrivalLane="outn_0" arrivalPos="496.00" arrivalSpeed="12.27" duration="150.60" routeLength="1494.90" waitingTime="7.60" waitingCount="2" stopTime="0.00" timeLoss="52.23" rerouteNo="0" devices="tripinfo_up_53" vType="Car@up_53" speedFactor="1.10" vaporized=""/>
    <tripinfo id="up_54" depart="64.20" departLane="12to7_0" departPos="5.10" departSpeed="13.93" departDelay="0.20" arrival="214.20" arrivalLane="outn_0" arrivalPos="496.00" arrivalSpeed="12.32" duration="150.00" routeLength="1494.90" waitingTime="9.60" waitingCount="3" stopTime="0.00" timeLoss="42.71" rerouteNo="0" devices="tripinfo_up_54" vType="Car@up_54" speedFactor="1.00" vaporized=""/>
    <tripinfo id="up_57" depart="67.00" departLane="12to7_0" departPos="5.10" departSpeed="15.87" departDelay="0.00" arrival="215.00" arrivalLane="outn_0" arrivalPos="496.00" arrivalSpeed="12.79" duration="148.00" routeLength="1494.90" waitingTime="11.60" waitingCount="2" stopTime="0.00" timeLoss="53.72" rerouteNo="0" devices="tripinfo_up_57" vType="Car@up_57" speedFactor="1.14" vaporized=""/>
    <tripinfo id="up_60" depart="68.40" departLane="12to7_0" departPos="5.10" departSpeed="15.04" departDelay="0.40" arrival="218.20" arrivalLane="outn_0" arrivalPos="496.00" arrivalSpeed="14.94" duration="149.80" routeLength="1494.90" waitingTime="11.40" waitingCount="2" stopTime="0.00" timeLoss="50.24" rerouteNo="0" devices="tripinfo_up_60" vType="Car@up_60" speedFactor="1.08" vaporized=""/>
    <tripinfo id="down_48" depart="55.00" departLane="9to2_0" departPos="5.10" departSpeed="12.18" departDelay="0.00" arrival="219.20" arrivalLane="outs_0" arrivalPos="496.00" arrivalSpeed="12.18" duration="164.20" routeLength="1494.90" waitingTime="14.80" waitingCount="2" stopTime="0.00" timeLoss="41.40" rerouteNo="0" devices="tripinfo_down_48" vType="Car@down_48" speedFactor="0.88" vaporized=""/>
    <tripinfo id="down_49" depart="56.60" departLane="9to2_0" departPos="5.10" departSpeed="11.81" departDelay="0.60" arrival="222.60" arrivalLane="outs_0" arrivalPos="496.00" arrivalSpeed="11.80" duration="166.00" routeLength="1494.90" waitingTime="15.40" waitingCount="2" stopTime="0.00" timeLoss="39.31" rerouteNo="0" devices="tripinfo_down_49" vType="Car@down_49" speedFactor="0.85" vaporized=""/>
    <tripinfo id="left_58" depart="67.00" departLane="8to7_0" departPos="5.10" departSpeed="14.22" departDelay="0.00" arrival="222.80" arrivalLane="outl_0" arrivalPos="492.80" arrivalSpeed="14.21" duration="155.80" routeLength="1494.90" waitingTime="0.60" waitingCount="2" stopTime="22.20" timeLoss="28.37" rerouteNo="0" devices="tripinfo_left_58" vType="Car@left_58" speedFactor="1.02" vaporized=""/>
    <tripinfo id="up_64" depart="71.00" departLane="12to7_0" departPos="5.10" departSpeed="13.02" departDelay="0.00" arrival="224.20" arrivalLane="outn_0" arrivalPos="496.00" arrivalSpeed="13.02" duration="153.20" routeLength="1494.90" waitingTime="11.40" waitingCount="2" stopTime="0.00" timeLoss="38.23" rerouteNo="0" devices="tripinfo_up_64" vType="Car@up_64" speedFactor="0.94" vaporized=""/>
    <tripinfo id="up_69" depart="73.20" departLane="12to7_0" departPos="5.10" departSpeed="14.20" departDelay="0.20" arrival="224.80" arrivalLane="outn_0" arrivalPos="496.00" arrivalSpeed="13.17" duration="151.60" routeLength="1494.90" waitingTime="13.20" waitingCount="2" stopTime="0.00" timeLoss="46.26" rerouteNo="0" devices="tripinfo_up_69" vType="Car@up_69" speedFactor="1.02" vaporized=""/>
    <tripinfo id="up_71" depart="76.00" departLane="12to7_0" departPos="5.10" departSpeed="13.51" departDelay="0.00" arrival="226.00" arrivalLane="outn_0" arrivalPos="496.00" arrivalSpeed="13.27" duration="150.00" routeLength="1494.90" waitingTime="13.20" waitingCount="2" stopTime="0.00" timeLoss="39.23" rerouteNo="0" devices="tripinfo_up_71" vType="Car@up_71" speedFactor="0.97" vaporized=""/>
    <tripinfo id="up_76" depart="84.00" departLane="12to7_0" departPos="5.10" departSpeed="14.34" departDelay="0.00" arrival="226.60" arrivalLane="outn_0" arrivalPos="496.00" arrivalSpeed="13.36" duration="142.60" routeLength="1494.90" waitingTime="9.00" waitingCount="2" stopTime="0.00" timeLoss="38.36" rerouteNo="0" devices="tripinfo_up_76" vType="Car@up_76" speedFactor="1.03" vaporized=""/>
    <tripinfo id="up_80" depart="86.00" departLane="12to7_0" departPos="5.10" departSpeed="14.37" departDelay="0.00" arrival="227.40" arrivalLane="outn_0" arrivalPos="496.00" arrivalSpeed="13.47" duration="141.40" routeLength="1494.90" waitingTime="10.60" waitingCount="2" stopTime="0.00" timeLoss="37.32" rerouteNo="0" devices="tripinfo_up_80" vType="Car@up_80" speedFactor="1.03" vaporized=""/>
    <tripinfo id="up_84" depart="91.00" departLane="12to7_0" departPos="5.10" departSpeed="15.94" departDelay="0.00" arrival="228.00" arrivalLane="outn_0" arrivalPos="496.00" arrivalSpeed="13.55" duration="137.00" routeLength="1494.90" waitingTime="10.60" waitingCount="2" stopTime="0.00" timeLoss="43.23" rerouteNo="0" devices="tripinfo_up_84" vType="Car@up_84" speedFactor="1.15" vaporized=""/>
    <tripinfo id="down_56" depart="67.00" departLane="9to2_0" departPos="5.10" departSpeed="12.49" departDelay="0.00" arrival="237.40" arrivalLane="outs_0" arrivalPos="496.00" arrivalSpeed="12.49" duration="170.40" routeLength="1494.90" waitingTime="7.60" waitingCount="2" stopTime="24.00" timeLoss="26.49" rerouteNo="0" devices="tripinfo_down_56" vType="Car@down_56" speedFactor="0.90" vaporized=""/>
    <tripinfo id="right_47" depart="53.00" departLane="1to2_0" departPos="5.10" departSpeed="12.51" departDelay="0.00" arrival="237.80" arrivalLane="outr_0" arrivalPos="492.80" arrivalSpeed="12.51" duration="184.80" routeLength="1494.90" waitingTime="4.20" waitingCount="3" stopTime="31.20" timeLoss="33.88" rerouteNo="0" devices="tripinfo_right_47" vType="Car@right_47" speedFactor="0.90" vaporized=""/>
    <tripinfo id="down_62" depart="70.00" departLane="9to2_0" departPos="5.10" departSpeed="14.11" departDelay="0.00" arrival="238.00" arrivalLane="outs_0" arrivalPos="496.00" arrivalSpeed="12.67" duration="168.00" routeLength="1494.90" waitingTime="33.40" waitingCount="2" stopTime="0.00" timeLoss="61.99" rerouteNo="0" devices="tripinfo_down_62" vType="Car@down_62" speedFactor="1.02" vaporized=""/>
    <tripinfo id="right_51" depart="60.00" departLane="1to2_0" departPos="5.10" departSpeed="16.24" departDelay="0.00" arrival="238.40" arrivalLane="outr_0" arrivalPos="492.80" arrivalSpeed="12.82" duration="178.40" routeLength="1494.90" waitingTime="38.60" waitingCount="3" stopTime="0.00" timeLoss="86.21" rerouteNo="0" devices="tripinfo_right_51" vType="Car@right_51" speedFactor="1.17" vaporized=""/>
    <tripinfo id="down_63" depart="71.60" departLane="9to2_0" departPos="5.10" departSpeed="13.71" departDelay="0.60" arrival="238.80" arrivalLane="outs_0" arrivalPos="496.00" arrivalSpeed="12.72" duration="167.20" routeLength="1494.90" waitingTime="35.20" waitingCount="2" stopTime="0.00" timeLoss="58.08" rerouteNo="0" devices="tripinfo_down_63" vType="Car@down_63" speedFactor="0.99" vaporized=""/>
    <tripinfo id="down_68" depart="73.60" departLane="9to2_0" departPos="5.10" departSpeed="14.44" departDelay="0.60" arrival="239.60" arrivalLane="outs_0" arrivalPos="496.00" arrivalSpeed="12.81" duration="166.00" routeLength="1494.90" waitingTime="37.80" waitingCount="2" stopTime="0.00" timeLoss="62.35" rerouteNo="0" devices="tripinfo_down_68" vType="Car@down_68" speedFactor="1.04" vaporized=""/>
    <tripinfo id="down_70" depart="76.00" departLane="9to2_0" departPos="5.10" departSpeed="14.21" departDelay="0.00" arrival="240.40" arrivalLane="outs_0" arrivalPos="496.00" arrivalSpeed="13.37" duration="164.40" routeLength="1494.90" waitingTime="37.80" waitingCount="2" stopTime="0.00" timeLoss="59.20" rerouteNo="0" devices="tripinfo_down_70" vType="Car@down_70" speedFactor="1.02" vaporized=""/>
    <tripinfo id="right_55" depart="65.00" departLane="1to2_0" departPos="5.10" departSpeed="13.83" departDelay="0.00" arrival="240.60" arrivalLane="outr_0" arrivalPos="492.80" arrivalSpeed="13.74" duration="175.60" routeLength="1494.90" waitingTime="34.40" waitingCount="3" stopTime="0.00" timeLoss="67.55" rerouteNo="0" devices="tripinfo_right_55" vType="Car@right_55" speedFactor="1.00" vaporized=""/>
    <tripinfo id="right_59" depart="68.00" departLane="1to2_0" departPos="5.10" departSpeed="13.47" departDelay="0.00" arrival="244.00" arrivalLane="outr_0" arrivalPos="492.80" arrivalSpeed="13.46" duration="176.00" routeLength="1494.90" waitingTime="33.00" waitingCount="3" stopTime="0.00" timeLoss="64.94" rerouteNo="0" devices="tripinfo_right_59" vType="Car@right_59" speedFactor="0.97" vaporized=""/>
    <tripinfo id="right_61" depart="70.40" departLane="1to2_0" departPos="5.10" departSpeed="15.55" departDelay="1.40" arrival="244.80" arrivalLane="outr_0" arrivalPos="492.80" arrivalSpeed="13.78" duration="174.40" routeLength="1494.90" waitingTime="35.20" waitingCount="3" stopTime="0.00" timeLoss="78.08" rerouteNo="0" devices="tripinfo_right_61" vType="Car@right_61" speedFactor="1.12" vaporized=""/>