<?xml version="1.0" encoding="UTF-8"?>

<!-- generated on 2022-01-06 13:57:02 by Eclipse SUMO GUI Version 1.10.0
<configuration xmlns:xsi="http://www.w3.org/2001/XMLSchema-instance" xsi:noNamespaceSchemaLocation="http://sumo.dlr.de/xsd/sumoConfiguration.xsd">

    <input>
        <net-file value="data/cross5x5.net.xml"/>
        <route-files value="data/cross5x5.rou.xml"/>
    </input>

    <output>
        <tripinfo-output value="data/out-tripinfo.xml"/>
    </output>

    <time>
        <begin value="0"/>
        <step-length value="0.2"/>
    </time>

    <processing>
        <collision.mingap-factor value="0"/>
    </processing>

    <report>
        <verbose value="true"/>
        <no-step-log value="true"/>
    </report>

    <traci_server>
        <remote-port value="45817"/>
    </traci_server>

    <gui_only>
        <tracker-interval value="0.2"/>
    </gui_only>

</configuration>
-->

<tripinfos xmlns:xsi="http://www.w3.org/2001/XMLSchema-instance" xsi:noNamespaceSchemaLocation="http://sumo.dlr.de/xsd/tripinfo_file.xsd">
    <tripinfo id="left2_6" depart="0.00" departLane="28to27_0" departPos="5.10" departSpeed="16.67" departDelay="0.00" arrival="180.00" arrivalLane="outl2_0" arrivalPos="492.80" arrivalSpeed="16.67" duration="180.00" routeLength="2994.90" waitingTime="0.00" waitingCount="0" stopTime="0.00" timeLoss="0.15" rerouteNo="0" devices="tripinfo_left2_6" vType="Car@left2_6" speedFactor="1.05" vaporized=""/>
    <tripinfo id="left2_16" depart="1.60" departLane="28to27_0" departPos="5.10" departSpeed="16.67" departDelay="0.60" arrival="181.80" arrivalLane="outl2_0" arrivalPos="492.80" arrivalSpeed="16.65" duration="180.20" routeLength="2994.90" waitingTime="0.00" waitingCount="0" stopTime="0.00" timeLoss="0.50" rerouteNo="0" devices="tripinfo_left2_16" vType="Car@left2_16" speedFactor="0.88" vaporized=""/>
    <tripinfo id="left2_32" depart="3.20" departLane="28to27_0" departPos="5.10" departSpeed="16.67" departDelay="0.20" arrival="183.60" arrivalLane="outl2_0" arrivalPos="492.80" arrivalSpeed="16.63" duration="180.40" routeLength="2994.90" waitingTime="0.00" waitingCount="0" stopTime="0.00" timeLoss="0.58" rerouteNo="0" devices="tripinfo_left2_32" vType="Car@left2_32" speedFactor="1.01" vaporized=""/>
    <tripinfo id="left2_42" depart="4.80" departLane="28to27_0" departPos="5.10" departSpeed="16.67" departDelay="0.80" arrival="185.20" arrivalLane="outl2_0" arrivalPos="492.80" arrivalSpeed="16.63" duration="180.40" routeLength="2994.90" waitingTime="0.00" waitingCount="0" stopTime="0.00" timeLoss="0.60" rerouteNo="0" devices="tripinfo_left2_42" vType="Car@left2_42" speedFactor="1.09" vaporized=""/>
    <tripinfo id="left2_52" depart="6.40" departLane="28to27_0" departPos="5.10" departSpeed="16.67" departDelay="1.40" arrival="186.80" arrivalLane="outl2_0" arrivalPos="492.80" arrivalSpeed="16.63" duration="180.40" routeLength="2994.90" waitingTime="0.00" waitingCount="0" stopTime="0.00" timeLoss="0.60" rerouteNo="0" devices="tripinfo_left2_52" vType="Car@left2_52" speedFactor="1.02" vaporized=""/>
    <tripinfo id="left2_60" depart="8.00" departLane="28to27_0" departPos="5.10" departSpeed="16.67" departDelay="2.00" arrival="188.40" arrivalLane="outl2_0" arrivalPos="492.80" arrivalSpeed="16.63" duration="180.40" routeLength="2994.90" waitingTime="0.00" waitingCount="0" stopTime="0.00" timeLoss="0.60" rerouteNo="0" devices="tripinfo_left2_60" vType="Car@left2_60" speedFactor="1.08" vaporized=""/>
    <tripinfo id="left2_68" depart="9.60" departLane="28to27_0" departPos="5.10" departSpeed="16.67" departDelay="2.60" arrival="190.00" arrivalLane="outl2_0" arrivalPos="492.80" arrivalSpeed="16.63" duration="180.40" routeLength="2994.90" waitingTime="0.00" waitingCount="0" stopTime="0.00" timeLoss="0.60" rerouteNo="0" devices="tripinfo_left2_68" vType="Car@left2_68" speedFactor="1.04" vaporized=""/>
    <tripinfo id="right1_0" depart="0.00" departLane="1to2_0" departPos="5.10" departSpeed="16.67" departDelay="0.00" arrival="200.40" arrivalLane="outr1_0" arrivalPos="496.00" arrivalSpeed="16.67" duration="200.40" routeLength="2994.90" waitingTime="0.40" waitingCount="1" stopTime="6.80" timeLoss="13.91" rerouteNo="0" devices="tripinfo_right1_0" vType="Car@right1_0" speedFactor="1.06" vaporized=""/>
    <tripinfo id="right1_7" depart="1.60" departLane="1to2_0" departPos="5.10" departSpeed="16.67" departDelay="0.60" arrival="203.60" arrivalLane="outr1_0" arrivalPos="496.00" arrivalSpeed="16.66" duration="202.00" routeLength="2994.90" waitingTime="8.20" waitingCount="1" stopTime="0.00" timeLoss="22.23" rerouteNo="0" devices="tripinfo_right1_7" vType="Car@right1_7" speedFactor="0.89" vaporized=""/>
    <tripinfo id="left1_5" depart="0.00" departLane="14to13_0" departPos="5.10" departSpeed="16.16" departDelay="0.00" arrival="204.00" arrivalLane="outl1_0" arrivalPos="492.80" arrivalSpeed="16.16" duration="204.00" routeLength="2994.90" waitingTime="0.60" waitingCount="1" stopTime="5.00" timeLoss="13.48" rerouteNo="0" devices="tripinfo_left1_5" vType="Car@left1_5" speedFactor="0.83" vaporized=""/>
    <tripinfo id="left1_15" depart="1.80" departLane="14to13_0" departPos="5.10" departSpeed="16.67" departDelay="0.80" arrival="205.00" arrivalLane="outl1_0" arrivalPos="492.80" arrivalSpeed="16.41" duration="203.20" routeLength="2994.90" waitingTime="6.60" waitingCount="1" stopTime="0.00" timeLoss="23.45" rerouteNo="0" devices="tripinfo_left1_15" vType="Car@left1_15" speedFactor="0.93" vaporized=""/>
    <tripinfo id="right3_2" depart="0.00" departLane="29to30_0" departPos="5.10" departSpeed="16.67" departDelay="0.00" arrival="216.80" arrivalLane="outr3_0" arrivalPos="496.00" arrivalSpeed="16.67" duration="216.80" routeLength="2994.90" waitingTime="1.00" waitingCount="2" stopTime="9.20" timeLoss="27.81" rerouteNo="0" devices="tripinfo_right3_2" vType="Car@right3_2" speedFactor="1.01" vaporized=""/>
    <tripinfo id="right3_9" depart="1.60" departLane="29to30_0" departPos="5.10" departSpeed="16.66" departDelay="0.60" arrival="220.00" arrivalLane="outr3_0" arrivalPos="496.00" arrivalSpeed="16.65" duration="218.40" routeLength="2994.90" waitingTime="10.40" waitingCount="2" stopTime="0.00" timeLoss="38.48" rerouteNo="0" devices="tripinfo_right3_9" vType="Car@right3_9" speedFactor="0.86" vaporized=""/>
    <tripinfo id="right3_19" depart="3.20" departLane="29to30_0" departPos="5.10" departSpeed="16.67" departDelay="1.20" arrival="222.80" arrivalLane="outr3_0" arrivalPos="496.00" arrivalSpeed="16.66" duration="219.60" routeLength="2994.90" waitingTime="11.80" waitingCount="2" stopTime="0.00" timeLoss="39.79" rerouteNo="0" devices="tripinfo_right3_19" vType="Car@right3_19" speedFactor="1.16" vaporized=""/>
    <tripinfo id="up2_4" depart="0.00" departLane="43to33_0" departPos="5.10" departSpeed="16.67" departDelay="0.00" arrival="223.40" arrivalLane="outn2_0" arrivalPos="496.00" arrivalSpeed="16.67" duration="223.40" routeLength="2994.90" waitingTime="1.00" waitingCount="2" stopTime="15.80" timeLoss="27.84" rerouteNo="0" devices="tripinfo_up2_4" vType="Car@up2_4" speedFactor="1.03" vaporized=""/>
    <tripinfo id="up1_13" depart="1.00" departLane="39to31_0" departPos="5.10" departSpeed="16.67" departDelay="0.00" arrival="223.60" arrivalLane="outn1_0" arrivalPos="496.00" arrivalSpeed="16.67" duration="222.60" routeLength="2994.90" waitingTime="1.00" waitingCount="2" stopTime="15.00" timeLoss="27.93" rerouteNo="0" devices="tripinfo_up1_13" vType="Car@up1_13" speedFactor="1.12" vaporized=""/>
    <tripinfo id="right3_27" depart="4.80" departLane="29to30_0" departPos="5.10" departSpeed="16.67" departDelay="1.80" arrival="225.40" arrivalLane="outr3_0" arrivalPos="496.00" arrivalSpeed="16.66" duration="220.60" routeLength="2994.90" waitingTime="12.60" waitingCount="2" stopTime="0.00" timeLoss="40.90" rerouteNo="0" devices="tripinfo_right3_27" vType="Car@right3_27" speedFactor="0.95" vaporized=""/>
    <tripinfo id="up2_14" depart="1.60" departLane="43to33_0" departPos="5.10" departSpeed="16.67" departDelay="0.60" arrival="226.60" arrivalLane="outn2_0" arrivalPos="496.00" arrivalSpeed="16.66" duration="225.00" routeLength="2994.90" waitingTime="17.20" waitingCount="2" stopTime="0.00" timeLoss="45.18" rerouteNo="0" devices="tripinfo_up2_14" vType="Car@up2_14" speedFactor="0.99" vaporized=""/>
    <tripinfo id="up1_23" depart="2.60" departLane="39to31_0" departPos="5.10" departSpeed="16.67" departDelay="0.60" arrival="226.80" arrivalLane="outn1_0" arrivalPos="496.00" arrivalSpeed="16.66" duration="224.20" routeLength="2994.90" waitingTime="16.40" waitingCount="2" stopTime="0.00" timeLoss="44.42" rerouteNo="0" devices="tripinfo_up1_23" vType="Car@up1_23" speedFactor="0.89" vaporized=""/>
    <tripinfo id="right3_35" depart="6.40" departLane="29to30_0" departPos="5.10" departSpeed="16.67" departDelay="2.40" arrival="228.20" arrivalLane="outr3_0" arrivalPos="496.00" arrivalSpeed="16.66" duration="221.80" routeLength="2994.90" waitingTime="13.80" waitingCount="2" stopTime="0.00" timeLoss="41.99" rerouteNo="0" devices="tripinfo_right3_35" vType="Car@right3_35" speedFactor="1.02" vaporized=""/>
    <tripinfo id="left2_87" depart="11.20" departLane="28to27_0" departPos="5.10" departSpeed="16.67" departDelay="2.20" arrival="229.00" arrivalLane="outl2_0" arrivalPos="492.80" arrivalSpeed="16.67" duration="217.80" routeLength="2994.90" waitingTime="0.60" waitingCount="1" stopTime="23.60" timeLoss="14.47" rerouteNo="0" devices="tripinfo_left2_87" vType="Car@left2_87" speedFactor="1.04" vaporized=""/>
    <tripinfo id="up2_30" depart="3.20" departLane="43to33_0" departPos="5.10" departSpeed="16.67" departDelay="0.20" arrival="229.20" arrivalLane="outn2_0" arrivalPos="496.00" arrivalSpeed="16.66" duration="226.00" routeLength="2994.90" waitingTime="18.20" waitingCount="2" stopTime="0.00" timeLoss="46.31" rerouteNo="0" devices="tripinfo_up2_30" vType="Car@up2_30" speedFactor="1.18" vaporized=""/>
    <tripinfo id="up1_29" depart="4.20" departLane="39to31_0" departPos="5.10" departSpeed="16.67" departDelay="1.20" arrival="229.40" arrivalLane="outn1_0" arrivalPos="496.00" arrivalSpeed="16.66" duration="225.20" routeLength="2994.90" waitingTime="17.20" waitingCount="2" stopTime="0.00" timeLoss="45.43" rerouteNo="0" devices="tripinfo_up1_29" vType="Car@up1_29" speedFactor="0.93" vaporized=""/>
    <tripinfo id="down2_11" depart="1.00" departLane="40to4_0" departPos="5.10" departSpeed="16.67" departDelay="0.00" arrival="230.40" arrivalLane="outs2_0" arrivalPos="492.80" arrivalSpeed="16.67" duration="229.40" routeLength="2994.90" waitingTime="1.20" waitingCount="2" stopTime="21.60" timeLoss="27.96" rerouteNo="0" devices="tripinfo_down2_11" vType="Car@down2_11" speedFactor="1.03" vaporized=""/>
    <tripinfo id="right3_45" depart="8.00" departLane="29to30_0" departPos="5.10" departSpeed="16.67" departDelay="3.00" arrival="230.80" arrivalLane="outr3_0" arrivalPos="496.00" arrivalSpeed="16.66" duration="222.80" routeLength="2994.90" waitingTime="14.60" waitingCount="2" stopTime="0.00" timeLoss="42.96" rerouteNo="0" devices="tripinfo_right3_45" vType="Car@right3_45" speedFactor="1.09" vaporized=""/>
    <tripinfo id="down1_10" depart="1.00" departLane="36to2_0" departPos="5.10" departSpeed="16.67" departDelay="0.00" arrival="231.00" arrivalLane="outs1_0" arrivalPos="492.80" arrivalSpeed="16.67" duration="230.00" routeLength="2994.90" waitingTime="1.20" waitingCount="2" stopTime="22.20" timeLoss="28.05" rerouteNo="0" devices="tripinfo_down1_10" vType="Car@down1_10" speedFactor="1.09" vaporized=""/>
    <tripinfo id="left1_24" depart="3.20" departLane="14to13_0" departPos="5.10" departSpeed="16.05" departDelay="1.20" arrival="231.60" arrivalLane="outl1_0" arrivalPos="492.80" arrivalSpeed="16.02" duration="228.40" routeLength="2994.90" waitingTime="6.60" waitingCount="2" stopTime="8.20" timeLoss="33.45" rerouteNo="0" devices="tripinfo_left1_24" vType="Car@left1_24" speedFactor="0.83" vaporized=""/>
    <tripinfo id="up1_39" depart="5.80" departLane="39to31_0" departPos="5.10" departSpeed="16.67" departDelay="1.80" arrival="231.80" arrivalLane="outn1_0" arrivalPos="496.00" arrivalSpeed="16.66" duration="226.00" routeLength="2994.90" waitingTime="17.80" waitingCount="2" stopTime="0.00" timeLoss="46.31" rerouteNo="0" devices="tripinfo_up1_39" vType="Car@up1_39" speedFactor="0.90" vaporized=""/>
    <tripinfo id="up2_40" depart="4.80" departLane="43to33_0" departPos="5.10" departSpeed="16.67" departDelay="0.80" arrival="231.80" arrivalLane="outn2_0" arrivalPos="496.00" arrivalSpeed="16.66" duration="227.00" routeLength="2994.90" waitingTime="19.00" waitingCount="2" stopTime="0.00" timeLoss="47.26" rerouteNo="0" devices="tripinfo_up2_40" vType="Car@up2_40" speedFactor="1.03" vaporized=""/>
    <tripinfo id="left2_96" depart="12.80" departLane="28to27_0" departPos="5.10" departSpeed="16.67" departDelay="2.80" arrival="232.20" arrivalLane="outl2_0" arrivalPos="492.80" arrivalSpeed="16.66" duration="219.40" routeLength="2994.90" waitingTime="25.60" waitingCount="1" stopTime="0.00" timeLoss="39.73" rerouteNo="0" devices="tripinfo_left2_96" vType="Car@left2_96" speedFactor="1.01" vaporized=""/>
    <tripinfo id="right2_1" depart="0.00" departLane="15to16_0" departPos="5.10" departSpeed="16.67" departDelay="0.00" arrival="232.80" arrivalLane="outr2_0" arrivalPos="496.00" arrivalSpeed="16.63" duration="232.80" routeLength="2994.90" waitingTime="1.00" waitingCount="2" stopTime="25.20" timeLoss="27.83" rerouteNo="0" devices="tripinfo_right2_1" vType="Car@right2_1" speedFactor="0.94" vaporized=""/>
    <tripinfo id="right3_54" depart="9.60" departLane="29to30_0" departPos="5.10" departSpeed="16.67" departDelay="3.60" arrival="233.20" arrivalLane="outr3_0" arrivalPos="496.00" arrivalSpeed="16.66" duration="223.60" routeLength="2994.90" waitingTime="15.60" waitingCount="2" stopTime="0.00" timeLoss="43.93" rerouteNo="0" devices="tripinfo_right3_54" vType="Car@right3_54" speedFactor="1.00" vaporized=""/>
    <tripinfo id="down2_21" depart="2.60" departLane="40to4_0" departPos="5.10" departSpeed="16.67" departDelay="0.60" arrival="233.40" arrivalLane="outs2_0" arrivalPos="492.80" arrivalSpeed="16.66" duration="230.80" routeLength="2994.90" waitingTime="23.20" waitingCount="2" stopTime="0.00" timeLoss="51.07" rerouteNo="0" devices="tripinfo_down2_21" vType="Car@down2_21" speedFactor="1.01" vaporized=""/>
    <tripinfo id="left1_31" depart="5.00" departLane="14to13_0" departPos="5.10" departSpeed="16.67" departDelay="2.00" arrival="233.80" arrivalLane="outl1_0" arrivalPos="492.80" arrivalSpeed="16.58" duration="228.80" routeLength="2994.90" waitingTime="17.20" waitingCount="2" stopTime="0.00" timeLoss="48.98" rerouteNo="0" devices="tripinfo_left1_31" vType="Car@left1_31" speedFactor="1.15" vaporized=""/>
    <tripinfo id="down1_20" depart="2.60" departLane="36to2_0" departPos="5.10" departSpeed="16.67" departDelay="0.60" arrival="234.00" arrivalLane="outs1_0" arrivalPos="492.80" arrivalSpeed="16.66" duration="231.40" routeLength="2994.90" waitingTime="23.60" waitingCount="2" stopTime="0.00" timeLoss="51.68" rerouteNo="0" devices="tripinfo_down1_20" vType="Car@down1_20" speedFactor="1.02" vaporized=""/>
    <tripinfo id="up2_50" depart="6.40" departLane="43to33_0" departPos="5.10" departSpeed="16.62" departDelay="1.40" arrival="234.40" arrivalLane="outn2_0" arrivalPos="496.00" arrivalSpeed="16.61" duration="228.00" routeLength="2994.90" waitingTime="19.00" waitingCount="2" stopTime="0.00" timeLoss="47.73" rerouteNo="0" devices="tripinfo_up2_50" vType="Car@up2_50" speedFactor="0.85" vaporized=""/>
    <tripinfo id="up1_49" depart="7.40" departLane="39to31_0" departPos="5.10" departSpeed="16.53" departDelay="2.40" arrival="234.80" arrivalLane="outn1_0" arrivalPos="496.00" arrivalSpeed="16.52" duration="227.40" routeLength="2994.90" waitingTime="17.80" waitingCount="2" stopTime="0.00" timeLoss="46.18" rerouteNo="0" devices="tripinfo_up1_49" vType="Car@up1_49" speedFactor="0.85" vaporized=""/>
    <tripinfo id="left2_104" depart="14.40" departLane="28to27_0" departPos="5.10" departSpeed="16.67" departDelay="3.40" arrival="235.00" arrivalLane="outl2_0" arrivalPos="492.80" arrivalSpeed="16.66" duration="220.60" routeLength="2994.90" waitingTime="26.60" waitingCount="1" stopTime="0.00" timeLoss="40.92" rerouteNo="0" devices="tripinfo_left2_104" vType="Car@left2_104" speedFactor="0.89" vaporized=""/>
    <tripinfo id="right2_8" depart="1.60" departLane="15to16_0" departPos="5.10" departSpeed="16.67" departDelay="0.60" arrival="235.80" arrivalLane="outr2_0" arrivalPos="496.00" arrivalSpeed="16.62" duration="234.20" routeLength="2994.90" waitingTime="26.00" waitingCount="2" stopTime="0.00" timeLoss="54.42" rerouteNo="0" devices="tripinfo_right2_8" vType="Car@right2_8" speedFactor="0.94" vaporized=""/>
    <tripinfo id="down2_28" depart="4.20" departLane="40to4_0" departPos="5.10" departSpeed="16.67" departDelay="1.20" arrival="236.00" arrivalLane="outs2_0" arrivalPos="492.80" arrivalSpeed="16.66" duration="231.80" routeLength="2994.90" waitingTime="23.60" waitingCount="2" stopTime="0.00" timeLoss="52.07" rerouteNo="0" devices="tripinfo_down2_28" vType="Car@down2_28" speedFactor="1.13" vaporized=""/>
    <tripinfo id="right3_63" depart="11.20" departLane="29to30_0" departPos="5.10" departSpeed="16.67" departDelay="4.20" arrival="236.00" arrivalLane="outr3_0" arrivalPos="496.00" arrivalSpeed="16.66" duration="224.80" routeLength="2994.90" waitingTime="16.60" waitingCount="2" stopTime="0.00" timeLoss="44.96" rerouteNo="0" devices="tripinfo_right3_63" vType="Car@right3_63" speedFactor="0.99" vaporized=""/>
    <tripinfo id="left1_41" depart="6.60" departLane="14to13_0" departPos="5.10" departSpeed="16.67" departDelay="2.60" arrival="236.20" arrivalLane="outl1_0" arrivalPos="492.80" arrivalSpeed="16.62" duration="229.60" routeLength="2994.90" waitingTime="20.60" waitingCount="2" stopTime="0.00" timeLoss="49.89" rerouteNo="0" devices="tripinfo_left1_41" vType="Car@left1_41" speedFactor="0.96" vaporized=""/>
    <tripinfo id="right1_17" depart="3.20" departLane="1to2_0" departPos="5.10" departSpeed="16.67" departDelay="1.20" arrival="236.40" arrivalLane="outr1_0" arrivalPos="496.00" arrivalSpeed="16.67" duration="233.20" routeLength="2994.90" waitingTime="9.40" waitingCount="2" stopTime="24.40" timeLoss="29.05" rerouteNo="0" devices="tripinfo_right1_17" vType="Car@right1_17" speedFactor="0.94" vaporized=""/>
    <tripinfo id="down1_36" depart="4.20" departLane="36to2_0" departPos="5.10" departSpeed="16.67" departDelay="0.20" arrival="236.60" arrivalLane="outs1_0" arrivalPos="492.80" arrivalSpeed="16.66" duration="232.40" routeLength="2994.90" waitingTime="24.80" waitingCount="2" stopTime="0.00" timeLoss="52.75" rerouteNo="0" devices="tripinfo_down1_36" vType="Car@down1_36" speedFactor="0.97" vaporized=""/>
    <tripinfo id="up2_59" depart="8.00" departLane="43to33_0" departPos="5.10" departSpeed="16.67" departDelay="2.00" arrival="236.80" arrivalLane="outn2_0" arrivalPos="496.00" arrivalSpeed="16.65" duration="228.80" routeLength="2994.90" waitingTime="21.00" waitingCount="2" stopTime="0.00" timeLoss="49.02" rerouteNo="0" devices="tripinfo_up2_59" vType="Car@up2_59" speedFactor="0.97" vaporized=""/>
    <tripinfo id="up1_58" depart="9.00" departLane="39to31_0" departPos="5.10" departSpeed="16.67" departDelay="3.00" arrival="237.00" arrivalLane="outn1_0" arrivalPos="496.00" arrivalSpeed="16.64" duration="228.00" routeLength="2994.90" waitingTime="20.00" waitingCount="2" stopTime="0.00" timeLoss="48.24" rerouteNo="0" devices="tripinfo_up1_58" vType="Car@up1_58" speedFactor="1.02" vaporized=""/>
    <tripinfo id="left2_114" depart="16.00" departLane="28to27_0" departPos="5.10" departSpeed="16.67" departDelay="4.00" arrival="237.80" arrivalLane="outl2_0" arrivalPos="492.80" arrivalSpeed="16.66" duration="221.80" routeLength="2994.90" waitingTime="27.60" waitingCount="1" stopTime="0.00" timeLoss="41.98" rerouteNo="0" devices="tripinfo_left2_114" vType="Car@left2_114" speedFactor="1.10" vaporized=""/>
    <tripinfo id="right2_18" depart="3.20" departLane="15to16_0" departPos="5.10" departSpeed="16.67" departDelay="1.20" arrival="238.40" arrivalLane="outr2_0" arrivalPos="496.00" arrivalSpeed="16.62" duration="235.20" routeLength="2994.90" waitingTime="27.00" waitingCount="2" stopTime="0.00" timeLoss="55.38" rerouteNo="0" devices="tripinfo_right2_18" vType="Car@right2_18" speedFactor="0.94" vaporized=""/>
    <tripinfo id="down2_37" depart="5.80" departLane="40to4_0" departPos="5.10" departSpeed="16.67" departDelay="1.80" arrival="238.40" arrivalLane="outs2_0" arrivalPos="492.80" arrivalSpeed="16.66" duration="232.60" routeLength="2994.90" waitingTime="24.40" waitingCount="2" stopTime="0.00" timeLoss="52.93" rerouteNo="0" devices="tripinfo_down2_37" vType="Car@down2_37" speedFactor="1.18" vaporized=""/>
    <tripinfo id="right1_25" depart="4.80" departLane="1to2_0" departPos="5.10" departSpeed="16.67" departDelay="1.80" arrival="239.20" arrivalLane="outr1_0" arrivalPos="496.00" arrivalSpeed="16.66" duration="234.40" routeLength="2994.90" waitingTime="34.40" waitingCount="2" stopTime="0.00" timeLoss="54.71" rerouteNo="0" devices="tripinfo_right1_25" vType="Car@right1_25" speedFactor="0.87" vaporized=""/>
    <tripinfo id="down1_46" depart="5.80" departLane="36to2_0" departPos="5.10" departSpeed="16.67" departDelay="0.80" arrival="239.20" arrivalLane="outs1_0" arrivalPos="492.80" arrivalSpeed="16.66" duration="233.40" routeLength="2994.90" waitingTime="25.60" waitingCount="2" stopTime="0.00" timeLoss="53.74" rerouteNo="0" devices="tripinfo_down1_46" vType="Car@down1_46" speedFactor="1.00" vaporized=""/>
    <tripinfo id="left2_123" depart="17.60" departLane="28to27_0" departPos="5.10" departSpeed="16.67" departDelay="4.60" arrival="240.40" arrivalLane="outl2_0" arrivalPos="492.80" arrivalSpeed="16.66" duration="222.80" routeLength="2994.90" waitingTime="28.60" waitingCount="1" stopTime="0.00" timeLoss="43.04" rerouteNo="0" devices="tripinfo_left2_123" vType="Car@left2_123" speedFactor="1.02" vaporized=""/>
    <tripinfo id="right2_26" depart="4.80" departLane="15to16_0" departPos="5.10" departSpeed="16.67" departDelay="1.80" arrival="240.80" arrivalLane="outr2_0" arrivalPos="496.00" arrivalSpeed="16.62" duration="236.00" routeLength="2994.90" waitingTime="28.00" waitingCount="2" stopTime="0.00" timeLoss="56.31" rerouteNo="0" devices="tripinfo_right2_26" vType="Car@right2_26" speedFactor="0.92" vaporized=""/>
    <tripinfo id="down2_47" depart="7.40" departLane="40to4_0" departPos="5.10" departSpeed="16.67" departDelay="2.40" arrival="241.00" arrivalLane="outs2_0" arrivalPos="492.80" arrivalSpeed="16.66" duration="233.60" routeLength="2994.90" waitingTime="25.60" waitingCount="2" stopTime="0.00" timeLoss="53.89" rerouteNo="0" devices="tripinfo_down2_47" vType="Car@down2_47" speedFactor="0.90" vaporized=""/>
    <tripinfo id="right1_33" depart="6.40" departLane="1to2_0" departPos="5.10" departSpeed="16.67" departDelay="2.40" arrival="241.80" arrivalLane="outr1_0" arrivalPos="496.00" arrivalSpeed="16.66" duration="235.40" routeLength="2994.90" waitingTime="35.40" waitingCount="2" stopTime="0.00" timeLoss="55.62" rerouteNo="0" devices="tripinfo_right1_33" vType="Car@right1_33" speedFactor="1.17" vaporized=""/>
    <tripinfo id="down1_55" depart="7.40" departLane="36to2_0" departPos="5.10" departSpeed="16.67" departDelay="1.40" arrival="241.80" arrivalLane="outs1_0" arrivalPos="492.80" arrivalSpeed="16.66" duration="234.40" routeLength="2994.90" waitingTime="26.40" waitingCount="2" stopTime="0.00" timeLoss="54.71" rerouteNo="0" devices="tripinfo_down1_55" vType="Car@down1_55" speedFactor="1.00" vaporized=""/>
    <tripinfo id="left2_138" depart="19.20" departLane="28to27_0" departPos="5.10" departSpeed="16.67" departDelay="4.20" arrival="243.00" arrivalLane="outl2_0" arrivalPos="492.80" arrivalSpeed="16.66" duration="223.80" routeLength="2994.90" waitingTime="29.40" waitingCount="1" stopTime="0.00" timeLoss="43.98" rerouteNo="0" devices="tripinfo_left2_138" vType="Car@left2_138" speedFactor="1.00" vaporized=""/>
    <tripinfo id="right2_34" depart="6.40" departLane="15to16_0" departPos="5.10" departSpeed="16.67" departDelay="2.40" arrival="243.40" arrivalLane="outr2_0" arrivalPos="496.00" arrivalSpeed="16.63" duration="237.00" routeLength="2994.90" waitingTime="29.00" waitingCount="2" stopTime="0.00" timeLoss="57.32" rerouteNo="0" devices="tripinfo_right2_34" vType="Car@right2_34" speedFactor="0.99" vaporized=""/>
    <tripinfo id="down2_56" depart="9.00" departLane="40to4_0" departPos="5.10" departSpeed="16.67" departDelay="3.00" arrival="243.60" arrivalLane="outs2_0" arrivalPos="492.80" arrivalSpeed="16.66" duration="234.60" routeLength="2994.90" waitingTime="26.80" waitingCount="2" stopTime="0.00" timeLoss="54.88" rerouteNo="0" devices="tripinfo_down2_56" vType="Car@down2_56" speedFactor="0.90" vaporized=""/>
    <tripinfo id="right1_43" depart="8.00" departLane="1to2_0" departPos="5.10" departSpeed="16.67" departDelay="3.00" arrival="244.20" arrivalLane="outr1_0" arrivalPos="496.00" arrivalSpeed="16.66" duration="236.20" routeLength="2994.90" waitingTime="36.20" waitingCount="2" stopTime="0.00" timeLoss="56.48" rerouteNo="0" devices="tripinfo_right1_43" vType="Car@right1_43" speedFactor="1.04" vaporized=""/>
    <tripinfo id="down1_64" depart="9.00" departLane="36to2_0" departPos="5.10" departSpeed="16.67" departDelay="2.00" arrival="244.40" arrivalLane="outs1_0" arrivalPos="492.80" arrivalSpeed="16.66" duration="235.40" routeLength="2994.90" waitingTime="27.40" waitingCount="2" stopTime="0.00" timeLoss="55.69" rerouteNo="0" devices="tripinfo_down1_64" vType="Car@down1_64" speedFactor="0.94" vaporized=""/>
    <tripinfo id="left2_145" depart="20.80" departLane="28to27_0" departPos="5.10" departSpeed="16.67" departDelay="4.80" arrival="245.40" arrivalLane="outl2_0" arrivalPos="492.80" arrivalSpeed="16.66" duration="224.60" routeLength="2994.90" waitingTime="30.60" waitingCount="1" stopTime="0.00" timeLoss="44.90" rerouteNo="0" devices="tripinfo_left2_145" vType="Car@left2_145" speedFactor="1.14" vaporized=""/>
    <tripinfo id="down2_73" depart="10.60" departLane="40to4_0" departPos="5.10" departSpeed="16.67" departDelay="2.60" arrival="246.20" arrivalLane="outs2_0" arrivalPos="492.80" arrivalSpeed="16.66" duration="235.60" routeLength="2994.90" waitingTime="27.60" waitingCount="2" stopTime="0.00" timeLoss="55.83" rerouteNo="0" devices="tripinfo_down2_73" vType="Car@down2_73" speedFactor="1.06" vaporized=""/>
    <tripinfo id="right1_53" depart="9.60" departLane="1to2_0" departPos="5.10" departSpeed="16.67" departDelay="3.60" arrival="246.80" arrivalLane="outr1_0" arrivalPos="496.00" arrivalSpeed="16.66" duration="237.20" routeLength="2994.90" waitingTime="37.20" waitingCount="2" stopTime="0.00" timeLoss="57.35" rerouteNo="0" devices="tripinfo_right1_53" vType="Car@right1_53" speedFactor="1.10" vaporized=""/>
    <tripinfo id="down1_72" depart="10.60" departLane="36to2_0" departPos="5.10" departSpeed="16.67" departDelay="2.60" arrival="247.00" arrivalLane="outs1_0" arrivalPos="492.80" arrivalSpeed="16.66" duration="236.40" routeLength="2994.90" waitingTime="28.60" waitingCount="2" stopTime="0.00" timeLoss="56.65" rerouteNo="0" devices="tripinfo_down1_72" vType="Car@down1_72" speedFactor="0.94" vaporized=""/>
    <tripinfo id="down3_3" depart="0.00" departLane="44to6_0" departPos="5.10" departSpeed="16.67" departDelay="0.00" arrival="247.80" arrivalLane="outs3_0" arrivalPos="492.80" arrivalSpeed="16.62" duration="247.80" routeLength="2994.90" waitingTime="1.40" waitingCount="3" stopTime="26.40" timeLoss="41.63" rerouteNo="0" devices="tripinfo_down3_3" vType="Car@down3_3" speedFactor="1.08" vaporized=""/>
    <tripinfo id="left2_155" depart="22.40" departLane="28to27_0" departPos="5.10" departSpeed="16.67" departDelay="5.40" arrival="248.00" arrivalLane="outl2_0" arrivalPos="492.80" arrivalSpeed="16.66" duration="225.60" routeLength="2994.90" waitingTime="31.60" waitingCount="1" stopTime="0.00" timeLoss="45.82" rerouteNo="0" devices="tripinfo_left2_155" vType="Car@left2_155" speedFactor="1.12" vaporized=""/>
    <tripinfo id="down2_82" depart="12.20" departLane="40to4_0" departPos="5.10" departSpeed="16.67" departDelay="3.20" arrival="248.60" arrivalLane="outs2_0" arrivalPos="492.80" arrivalSpeed="16.66" duration="236.40" routeLength="2994.90" waitingTime="28.40" waitingCount="2" stopTime="0.00" timeLoss="56.71" rerouteNo="0" devices="tripinfo_down2_82" vType="Car@down2_82" speedFactor="1.02" vaporized=""/>
    <tripinfo id="down1_81" depart="12.20" departLane="36to2_0" departPos="5.10" departSpeed="16.67" departDelay="3.20" arrival="249.60" arrivalLane="outs1_0" arrivalPos="492.80" arrivalSpeed="16.66" duration="237.40" routeLength="2994.90" waitingTime="29.60" waitingCount="2" stopTime="0.00" timeLoss="57.59" rerouteNo="0" devices="tripinfo_down1_81" vType="Car@down1_81" speedFactor="1.00" vaporized=""/>
    <tripinfo id="down3_12" depart="1.60" departLane="44to6_0" departPos="5.10" departSpeed="16.67" departDelay="0.60" arrival="251.00" arrivalLane="outs3_0" arrivalPos="492.80" arrivalSpeed="16.62" duration="249.40" routeLength="2994.90" waitingTime="27.60" waitingCount="3" stopTime="0.00" timeLoss="69.56" rerouteNo="0" devices="tripinfo_down3_12" vType="Car@down3_12" speedFactor="1.05" vaporized=""/>
    <tripinfo id="down3_22" depart="3.20" departLane="44to6_0" departPos="5.10" departSpeed="16.67" departDelay="1.20" arrival="253.60" arrivalLane="outs3_0" arrivalPos="492.80" arrivalSpeed="16.62" duration="250.40" routeLength="2994.90" waitingTime="28.40" waitingCount="3" stopTime="0.00" timeLoss="70.70" rerouteNo="0" devices="tripinfo_down3_22" vType="Car@down3_22" speedFactor="0.98" vaporized=""/>