<?xml version="1.0" encoding="UTF-8"?>

<<<<<<< HEAD
<!-- generated on 2022-01-03 10:05:06 by Eclipse SUMO GUI Version 1.10.0
<configuration xmlns:xsi="http://www.w3.org/2001/XMLSchema-instance" xsi:noNamespaceSchemaLocation="http://sumo.dlr.de/xsd/sumoConfiguration.xsd">

    <input>
        <net-file value="data/ciudad10x10_semaforo.net.xml"/>
        <route-files value="data/ciudad10x10_semaforo.rou.xml"/>
=======
<!-- generated on 2022-01-03 10:14:53 by Eclipse SUMO GUI Version 1.10.0
<configuration xmlns:xsi="http://www.w3.org/2001/XMLSchema-instance" xsi:noNamespaceSchemaLocation="http://sumo.dlr.de/xsd/sumoConfiguration.xsd">

    <input>
        <net-file value="data/ciudad5x5_semaforo.net.xml"/>
        <route-files value="data/ciudad5x5_semaforo.rou.xml"/>
>>>>>>> main
    </input>

    <output>
        <tripinfo-output value="data/out-tripinfo.xml"/>
    </output>

    <time>
        <begin value="0"/>
        <step-length value="0.2"/>
    </time>

    <processing>
        <collision.mingap-factor value="0"/>
    </processing>

    <report>
        <verbose value="true"/>
        <no-step-log value="true"/>
    </report>

    <traci_server>
<<<<<<< HEAD
        <remote-port value="37553"/>
=======
        <remote-port value="52185"/>
>>>>>>> main
    </traci_server>

    <gui_only>
        <tracker-interval value="0.2"/>
    </gui_only>

</configuration>
-->

<tripinfos xmlns:xsi="http://www.w3.org/2001/XMLSchema-instance" xsi:noNamespaceSchemaLocation="http://sumo.dlr.de/xsd/tripinfo_file.xsd">
</tripinfos>
