<?xml version="1.0" encoding="UTF-8"?>

<!-- generated on 11/09/20 16:45:55 by Eclipse SUMO GUI Version 1.6.0
<configuration xmlns:xsi="http://www.w3.org/2001/XMLSchema-instance" xsi:noNamespaceSchemaLocation="http://sumo.dlr.de/xsd/sumoConfiguration.xsd">

    <input>
        <net-file value="data/cross.net.xml"/>
        <route-files value="data/cross.rou.xml"/>
    </input>

    <output>
        <tripinfo-output value="data/out-tripinfo.xml"/>
    </output>

    <time>
        <begin value="0"/>
        <step-length value="0.2"/>
    </time>

    <processing>
        <collision.mingap-factor value="0"/>
    </processing>

    <report>
        <verbose value="true"/>
        <no-step-log value="true"/>
    </report>

    <traci_server>
        <remote-port value="58006"/>
    </traci_server>

    <gui_only>
        <tracker-interval value="0.2"/>
    </gui_only>

</configuration>
-->

<tripinfos xmlns:xsi="http://www.w3.org/2001/XMLSchema-instance" xsi:noNamespaceSchemaLocation="http://sumo.dlr.de/xsd/tripinfo_file.xsd">
    <tripinfo id="down_0" depart="0.00" departLane="3i_0" departPos="5.10" departSpeed="16.67" departDelay="0.00" arrival="73.80" arrivalLane="4o_0" arrivalPos="492.80" arrivalSpeed="11.78" duration="73.80" routeLength="994.90" waitingTime="0.00" waitingCount="0" stopTime="0.00" timeLoss="1.58" rerouteNo="0" devices="tripinfo_down_0" vType="typeNS@down_0" speedFactor="1.06" vaporized=""/>
    <tripinfo id="down_2" depart="2.00" departLane="3i_0" departPos="5.10" departSpeed="16.67" departDelay="0.00" arrival="78.00" arrivalLane="4o_0" arrivalPos="492.80" arrivalSpeed="11.22" duration="76.00" routeLength="994.90" waitingTime="0.00" waitingCount="0" stopTime="0.00" timeLoss="1.78" rerouteNo="0" devices="tripinfo_down_2" vType="typeNS@down_2" speedFactor="1.01" vaporized=""/>
    <tripinfo id="down_5" depart="5.00" departLane="3i_0" departPos="5.10" departSpeed="16.16" departDelay="0.00" arrival="91.80" arrivalLane="4o_0" arrivalPos="492.80" arrivalSpeed="9.23" duration="86.80" routeLength="994.90" waitingTime="0.00" waitingCount="0" stopTime="0.00" timeLoss="2.00" rerouteNo="0" devices="tripinfo_down_5" vType="typeNS@down_5" speedFactor="0.83" vaporized=""/>
    <tripinfo id="down_6" depart="6.80" departLane="3i_0" departPos="5.10" departSpeed="16.67" departDelay="0.80" arrival="92.60" arrivalLane="4o_0" arrivalPos="492.80" arrivalSpeed="9.60" duration="85.80" routeLength="994.90" waitingTime="0.00" waitingCount="0" stopTime="0.00" timeLoss="13.17" rerouteNo="0" devices="tripinfo_down_6" vType="typeNS@down_6" speedFactor="1.05" vaporized=""/>
    <tripinfo id="right_1" depart="1.00" departLane="1i_0" departPos="5.10" departSpeed="16.67" departDelay="0.00" arrival="94.60" arrivalLane="2o_0" arrivalPos="496.00" arrivalSpeed="10.42" duration="93.60" routeLength="994.90" waitingTime="0.00" waitingCount="0" stopTime="5.00" timeLoss="10.88" rerouteNo="0" devices="tripinfo_right_1" vType="typeWE@right_1" speedFactor="0.94" vaporized=""/>
    <tripinfo id="right_3" depart="3.00" departLane="1i_0" departPos="5.10" departSpeed="16.67" departDelay="0.00" arrival="95.40" arrivalLane="2o_0" arrivalPos="496.00" arrivalSpeed="10.69" duration="92.40" routeLength="994.90" waitingTime="6.40" waitingCount="1" stopTime="0.00" timeLoss="21.16" rerouteNo="0" devices="tripinfo_right_3" vType="typeWE@right_3" speedFactor="1.08" vaporized=""/>
    <tripinfo id="right_4" depart="4.60" departLane="1i_0" departPos="5.10" departSpeed="16.67" departDelay="0.60" arrival="97.20" arrivalLane="2o_0" arrivalPos="496.00" arrivalSpeed="11.31" duration="92.60" routeLength="994.90" waitingTime="7.60" waitingCount="1" stopTime="0.00" timeLoss="19.21" rerouteNo="0" devices="tripinfo_right_4" vType="typeWE@right_4" speedFactor="1.03" vaporized=""/>
    <tripinfo id="right_7" depart="8.00" departLane="1i_0" departPos="5.10" departSpeed="16.67" departDelay="0.00" arrival="106.00" arrivalLane="2o_0" arrivalPos="496.00" arrivalSpeed="9.84" duration="98.00" routeLength="994.90" waitingTime="6.40" waitingCount="1" stopTime="0.00" timeLoss="17.43" rerouteNo="0" devices="tripinfo_right_7" vType="typeWE@right_7" speedFactor="0.89" vaporized=""/>
    <tripinfo id="right_8" depart="9.60" departLane="1i_0" departPos="5.10" departSpeed="16.67" departDelay="0.60" arrival="107.20" arrivalLane="2o_0" arrivalPos="496.00" arrivalSpeed="10.12" duration="97.60" routeLength="994.90" waitingTime="8.00" waitingCount="1" stopTime="0.00" timeLoss="19.90" rerouteNo="0" devices="tripinfo_right_8" vType="typeWE@right_8" speedFactor="0.94" vaporized=""/>
    <tripinfo id="right_9" depart="16.00" departLane="1i_0" departPos="5.10" departSpeed="16.66" departDelay="0.00" arrival="113.40" arrivalLane="2o_0" arrivalPos="496.00" arrivalSpeed="9.52" duration="97.40" routeLength="994.90" waitingTime="3.60" waitingCount="1" stopTime="0.00" timeLoss="15.05" rerouteNo="0" devices="tripinfo_right_9" vType="typeWE@right_9" speedFactor="0.86" vaporized=""/>
    <tripinfo id="right_10" depart="17.60" departLane="1i_0" departPos="5.10" departSpeed="16.67" departDelay="0.60" arrival="114.20" arrivalLane="2o_0" arrivalPos="496.00" arrivalSpeed="9.90" duration="96.60" routeLength="994.90" waitingTime="5.80" waitingCount="1" stopTime="0.00" timeLoss="25.70" rerouteNo="0" devices="tripinfo_right_10" vType="typeWE@right_10" speedFactor="1.09" vaporized=""/>
    <tripinfo id="right_14" depart="22.00" departLane="1i_0" departPos="5.10" departSpeed="16.67" departDelay="0.00" arrival="115.20" arrivalLane="2o_0" arrivalPos="496.00" arrivalSpeed="9.87" duration="93.20" routeLength="994.90" waitingTime="3.60" waitingCount="1" stopTime="0.00" timeLoss="18.04" rerouteNo="0" devices="tripinfo_right_14" vType="typeWE@right_14" speedFactor="0.99" vaporized=""/>
    <tripinfo id="right_16" depart="27.00" departLane="1i_0" departPos="5.10" departSpeed="16.67" departDelay="0.00" arrival="121.00" arrivalLane="2o_0" arrivalPos="496.00" arrivalSpeed="9.76" duration="94.00" routeLength="994.90" waitingTime="1.20" waitingCount="1" stopTime="0.00" timeLoss="12.98" rerouteNo="0" devices="tripinfo_right_16" vType="typeWE@right_16" speedFactor="0.88" vaporized=""/>
    <tripinfo id="right_17" depart="31.00" departLane="1i_0" departPos="5.10" departSpeed="16.67" departDelay="0.00" arrival="122.20" arrivalLane="2o_0" arrivalPos="496.00" arrivalSpeed="10.06" duration="91.20" routeLength="994.90" waitingTime="0.80" waitingCount="1" stopTime="0.00" timeLoss="13.54" rerouteNo="0" devices="tripinfo_right_17" vType="typeWE@right_17" speedFactor="0.94" vaporized=""/>
    <tripinfo id="right_20" depart="35.00" departLane="1i_0" departPos="5.10" departSpeed="16.67" departDelay="0.00" arrival="123.00" arrivalLane="2o_0" arrivalPos="496.00" arrivalSpeed="10.24" duration="88.00" routeLength="994.90" waitingTime="0.00" waitingCount="0" stopTime="0.00" timeLoss="14.08" rerouteNo="0" devices="tripinfo_right_20" vType="typeWE@right_20" speedFactor="1.02" vaporized=""/>
    <tripinfo id="right_22" depart="39.00" departLane="1i_0" departPos="5.10" departSpeed="16.67" departDelay="0.00" arrival="126.60" arrivalLane="2o_0" arrivalPos="496.00" arrivalSpeed="10.82" duration="87.60" routeLength="994.90" waitingTime="0.00" waitingCount="0" stopTime="0.00" timeLoss="11.73" rerouteNo="0" devices="tripinfo_right_22" vType="typeWE@right_22" speedFactor="0.98" vaporized=""/>
    <tripinfo id="right_25" depart="47.00" departLane="1i_0" departPos="5.10" departSpeed="16.67" departDelay="0.00" arrival="133.20" arrivalLane="2o_0" arrivalPos="496.00" arrivalSpeed="9.69" duration="86.20" routeLength="994.90" waitingTime="0.00" waitingCount="0" stopTime="0.00" timeLoss="4.75" rerouteNo="0" devices="tripinfo_right_25" vType="typeWE@right_25" speedFactor="0.87" vaporized=""/>
    <tripinfo id="right_26" depart="49.00" departLane="1i_0" departPos="5.10" departSpeed="16.67" departDelay="0.00" arrival="134.20" arrivalLane="2o_0" arrivalPos="496.00" arrivalSpeed="9.82" duration="85.20" routeLength="994.90" waitingTime="0.00" waitingCount="0" stopTime="0.00" timeLoss="6.38" rerouteNo="0" devices="tripinfo_right_26" vType="typeWE@right_26" speedFactor="0.92" vaporized=""/>
    <tripinfo id="right_30" depart="53.00" departLane="1i_0" departPos="5.10" departSpeed="16.67" departDelay="0.00" arrival="135.00" arrivalLane="2o_0" arrivalPos="496.00" arrivalSpeed="10.13" duration="82.00" routeLength="994.90" waitingTime="0.00" waitingCount="0" stopTime="0.00" timeLoss="14.14" rerouteNo="0" devices="tripinfo_right_30" vType="typeWE@right_30" speedFactor="1.18" vaporized=""/>
    <tripinfo id="right_31" depart="54.60" departLane="1i_0" departPos="5.10" departSpeed="16.67" departDelay="0.60" arrival="135.80" arrivalLane="2o_0" arrivalPos="496.00" arrivalSpeed="10.12" duration="81.20" routeLength="994.90" waitingTime="0.00" waitingCount="0" stopTime="0.00" timeLoss="12.56" rerouteNo="0" devices="tripinfo_right_31" vType="typeWE@right_31" speedFactor="1.15" vaporized=""/>
    <tripinfo id="down_11" depart="17.00" departLane="3i_0" departPos="5.10" departSpeed="16.67" departDelay="0.00" arrival="137.80" arrivalLane="4o_0" arrivalPos="492.80" arrivalSpeed="11.40" duration="120.80" routeLength="994.90" waitingTime="0.00" waitingCount="0" stopTime="35.80" timeLoss="11.49" rerouteNo="0" devices="tripinfo_down_11" vType="typeNS@down_11" speedFactor="1.03" vaporized=""/>
    <tripinfo id="down_12" depart="19.00" departLane="3i_0" departPos="5.10" departSpeed="16.67" departDelay="0.00" arrival="140.40" arrivalLane="4o_0" arrivalPos="492.80" arrivalSpeed="11.61" duration="121.40" routeLength="994.90" waitingTime="37.40" waitingCount="1" stopTime="0.00" timeLoss="48.75" rerouteNo="0" devices="tripinfo_down_12" vType="typeNS@down_12" speedFactor="1.05" vaporized=""/>
    <tripinfo id="down_13" depart="21.00" departLane="3i_0" departPos="5.10" departSpeed="16.67" departDelay="0.00" arrival="141.40" arrivalLane="4o_0" arrivalPos="492.80" arrivalSpeed="12.00" duration="120.40" routeLength="994.90" waitingTime="38.00" waitingCount="1" stopTime="0.00" timeLoss="50.68" rerouteNo="0" devices="tripinfo_down_13" vType="typeNS@down_13" speedFactor="1.12" vaporized=""/>
    <tripinfo id="down_15" depart="25.00" departLane="3i_0" departPos="5.10" departSpeed="16.67" departDelay="0.00" arrival="150.60" arrivalLane="4o_0" arrivalPos="492.80" arrivalSpeed="10.30" duration="125.60" routeLength="994.90" waitingTime="36.00" waitingCount="1" stopTime="0.00" timeLoss="47.39" rerouteNo="0" devices="tripinfo_down_15" vType="typeNS@down_15" speedFactor="0.93" vaporized=""/>
    <tripinfo id="down_18" depart="33.00" departLane="3i_0" departPos="5.10" departSpeed="16.67" departDelay="0.00" arrival="153.00" arrivalLane="4o_0" arrivalPos="492.80" arrivalSpeed="10.38" duration="120.00" routeLength="994.90" waitingTime="30.40" waitingCount="1" stopTime="0.00" timeLoss="42.29" rerouteNo="0" devices="tripinfo_down_18" vType="typeNS@down_18" speedFactor="0.94" vaporized=""/>
    <tripinfo id="down_19" depart="34.60" departLane="3i_0" departPos="5.10" departSpeed="16.67" departDelay="0.60" arrival="153.80" arrivalLane="4o_0" arrivalPos="492.80" arrivalSpeed="10.72" duration="119.20" routeLength="994.90" waitingTime="32.60" waitingCount="1" stopTime="0.00" timeLoss="50.71" rerouteNo="0" devices="tripinfo_down_19" vType="typeNS@down_19" speedFactor="1.16" vaporized=""/>
    <tripinfo id="down_21" depart="36.20" departLane="3i_0" departPos="5.10" departSpeed="16.67" departDelay="0.20" arrival="155.80" arrivalLane="4o_0" arrivalPos="492.80" arrivalSpeed="11.14" duration="119.60" routeLength="994.90" waitingTime="33.80" waitingCount="1" stopTime="0.00" timeLoss="45.51" rerouteNo="0" devices="tripinfo_down_21" vType="typeNS@down_21" speedFactor="1.01" vaporized=""/>
    <tripinfo id="down_23" depart="41.00" departLane="3i_0" departPos="5.10" departSpeed="16.67" departDelay="0.00" arrival="164.00" arrivalLane="4o_0" arrivalPos="492.80" arrivalSpeed="9.88" duration="123.00" routeLength="994.90" waitingTime="31.00" waitingCount="1" stopTime="0.00" timeLoss="42.68" rerouteNo="0" devices="tripinfo_down_23" vType="typeNS@down_23" speedFactor="0.89" vaporized=""/>
    <tripinfo id="down_24" depart="44.00" departLane="3i_0" departPos="5.10" departSpeed="16.05" departDelay="0.00" arrival="170.60" arrivalLane="4o_0" arrivalPos="492.80" arrivalSpeed="9.17" duration="126.60" routeLength="994.90" waitingTime="29.80" waitingCount="1" stopTime="0.00" timeLoss="41.27" rerouteNo="0" devices="tripinfo_down_24" vType="typeNS@down_24" speedFactor="0.83" vaporized=""/>
    <tripinfo id="down_27" depart="49.00" departLane="3i_0" departPos="5.10" departSpeed="16.67" departDelay="0.00" arrival="171.60" arrivalLane="4o_0" arrivalPos="492.80" arrivalSpeed="9.49" duration="122.60" routeLength="994.90" waitingTime="28.40" waitingCount="1" stopTime="0.00" timeLoss="45.47" rerouteNo="0" devices="tripinfo_down_27" vType="typeNS@down_27" speedFactor="0.95" vaporized=""/>
    <tripinfo id="down_28" depart="51.00" departLane="3i_0" departPos="5.10" departSpeed="16.67" departDelay="0.00" arrival="172.40" arrivalLane="4o_0" arrivalPos="492.80" arrivalSpeed="9.64" duration="121.40" routeLength="994.90" waitingTime="29.40" waitingCount="1" stopTime="0.00" timeLoss="52.01" rerouteNo="0" devices="tripinfo_down_28" vType="typeNS@down_28" speedFactor="1.13" vaporized=""/>
    <tripinfo id="down_29" depart="52.60" departLane="3i_0" departPos="5.10" departSpeed="16.67" departDelay="0.60" arrival="173.60" arrivalLane="4o_0" arrivalPos="492.80" arrivalSpeed="9.91" duration="121.00" routeLength="994.90" waitingTime="30.60" waitingCount="1" stopTime="0.00" timeLoss="43.08" rerouteNo="0" devices="tripinfo_down_29" vType="typeNS@down_29" speedFactor="0.93" vaporized=""/>
    <tripinfo id="down_32" depart="56.00" departLane="3i_0" departPos="5.10" departSpeed="16.67" departDelay="0.00" arrival="174.60" arrivalLane="4o_0" arrivalPos="492.80" arrivalSpeed="10.08" duration="118.60" routeLength="994.90" waitingTime="29.20" waitingCount="1" stopTime="0.00" timeLoss="44.14" rerouteNo="0" devices="tripinfo_down_32" vType="typeNS@down_32" speedFactor="1.01" vaporized=""/>
    <tripinfo id="right_34" depart="60.00" departLane="1i_0" departPos="5.10" departSpeed="16.67" departDelay="0.00" arrival="181.20" arrivalLane="2o_0" arrivalPos="496.00" arrivalSpeed="11.05" duration="121.20" routeLength="994.90" waitingTime="0.00" waitingCount="0" stopTime="35.00" timeLoss="11.17" rerouteNo="0" devices="tripinfo_right_34" vType="typeWE@right_34" speedFactor="0.99" vaporized=""/>
    <tripinfo id="right_36" depart="62.00" departLane="1i_0" departPos="5.10" departSpeed="16.67" departDelay="0.00" arrival="185.20" arrivalLane="2o_0" arrivalPos="496.00" arrivalSpeed="10.81" duration="123.20" routeLength="994.90" waitingTime="36.40" waitingCount="1" stopTime="0.00" timeLoss="47.28" rerouteNo="0" devices="tripinfo_right_36" vType="typeWE@right_36" speedFactor="0.97" vaporized=""/>
    <tripinfo id="right_41" depart="71.00" departLane="1i_0" departPos="5.10" departSpeed="16.67" departDelay="0.00" arrival="188.80" arrivalLane="2o_0" arrivalPos="496.00" arrivalSpeed="10.63" duration="117.80" routeLength="994.90" waitingTime="29.20" waitingCount="1" stopTime="0.00" timeLoss="40.94" rerouteNo="0" devices="tripinfo_right_41" vType="typeWE@right_41" speedFactor="0.96" vaporized=""/>
    <tripinfo id="right_45" depart="79.00" departLane="1i_0" departPos="5.10" departSpeed="16.67" departDelay="0.00" arrival="189.60" arrivalLane="2o_0" arrivalPos="496.00" arrivalSpeed="10.87" duration="110.60" routeLength="994.90" waitingTime="24.00" waitingCount="1" stopTime="0.00" timeLoss="39.50" rerouteNo="0" devices="tripinfo_right_45" vType="typeWE@right_45" speedFactor="1.09" vaporized=""/>
    <tripinfo id="right_47" depart="80.60" departLane="1i_0" departPos="5.10" departSpeed="16.67" departDelay="0.60" arrival="197.20" arrivalLane="2o_0" arrivalPos="496.00" arrivalSpeed="10.00" duration="116.60" routeLength="994.90" waitingTime="26.00" waitingCount="1" stopTime="0.00" timeLoss="36.73" rerouteNo="0" devices="tripinfo_right_47" vType="typeWE@right_47" speedFactor="0.90" vaporized=""/>
    <tripinfo id="right_48" depart="85.00" departLane="1i_0" departPos="5.10" departSpeed="16.67" departDelay="0.00" arrival="201.20" arrivalLane="2o_0" arrivalPos="496.00" arrivalSpeed="9.74" duration="116.20" routeLength="994.90" waitingTime="23.80" waitingCount="1" stopTime="0.00" timeLoss="35.11" rerouteNo="0" devices="tripinfo_right_48" vType="typeWE@right_48" speedFactor="0.88" vaporized=""/>
    <tripinfo id="right_50" depart="89.00" departLane="1i_0" departPos="5.10" departSpeed="16.62" departDelay="0.00" arrival="205.20" arrivalLane="2o_0" arrivalPos="496.00" arrivalSpeed="9.49" duration="116.20" routeLength="994.90" waitingTime="22.40" waitingCount="1" stopTime="0.00" timeLoss="33.73" rerouteNo="0" devices="tripinfo_right_50" vType="typeWE@right_50" speedFactor="0.85" vaporized=""/>
    <tripinfo id="right_52" depart="91.00" departLane="1i_0" departPos="5.10" departSpeed="16.67" departDelay="0.00" arrival="206.20" arrivalLane="2o_0" arrivalPos="496.00" arrivalSpeed="9.87" duration="115.20" routeLength="994.90" waitingTime="23.60" waitingCount="1" stopTime="0.00" timeLoss="41.14" rerouteNo="0" devices="tripinfo_right_52" vType="typeWE@right_52" speedFactor="1.02" vaporized=""/>
    <tripinfo id="right_53" depart="92.60" departLane="1i_0" departPos="5.10" departSpeed="16.67" departDelay="0.60" arrival="207.00" arrivalLane="2o_0" arrivalPos="496.00" arrivalSpeed="9.89" duration="114.40" routeLength="994.90" waitingTime="24.80" waitingCount="1" stopTime="0.00" timeLoss="43.63" rerouteNo="0" devices="tripinfo_right_53" vType="typeWE@right_53" speedFactor="1.10" vaporized=""/>
    <tripinfo id="right_54" depart="95.00" departLane="1i_0" departPos="5.10" departSpeed="16.67" departDelay="0.00" arrival="208.00" arrivalLane="2o_0" arrivalPos="496.00" arrivalSpeed="9.98" duration="113.00" routeLength="994.90" waitingTime="24.60" waitingCount="1" stopTime="0.00" timeLoss="38.36" rerouteNo="0" devices="tripinfo_right_54" vType="typeWE@right_54" speedFactor="1.00" vaporized=""/>
    <tripinfo id="right_56" depart="98.00" departLane="1i_0" departPos="5.10" departSpeed="16.67" departDelay="0.00" arrival="214.00" arrivalLane="2o_0" arrivalPos="496.00" arrivalSpeed="9.99" duration="116.00" routeLength="994.90" waitingTime="24.20" waitingCount="1" stopTime="0.00" timeLoss="36.20" rerouteNo="0" devices="tripinfo_right_56" vType="typeWE@right_56" speedFactor="0.90" vaporized=""/>
    <tripinfo id="down_33" depart="57.60" departLane="3i_0" departPos="5.10" departSpeed="16.67" departDelay="0.60" arrival="214.20" arrivalLane="4o_0" arrivalPos="492.80" arrivalSpeed="13.02" duration="156.60" routeLength="994.90" waitingTime="31.00" waitingCount="1" stopTime="34.60" timeLoss="54.01" rerouteNo="0" devices="tripinfo_down_33" vType="typeNS@down_33" speedFactor="1.17" vaporized=""/>
    <tripinfo id="right_59" depart="105.00" departLane="1i_0" departPos="5.10" departSpeed="16.67" departDelay="0.00" arrival="215.00" arrivalLane="2o_0" arrivalPos="496.00" arrivalSpeed="10.19" duration="110.00" routeLength="994.90" waitingTime="19.20" waitingCount="1" stopTime="0.00" timeLoss="33.85" rerouteNo="0" devices="tripinfo_right_59" vType="typeWE@right_59" speedFactor="0.97" vaporized=""/>
    <tripinfo id="down_35" depart="61.00" departLane="3i_0" departPos="5.10" departSpeed="16.67" departDelay="0.00" arrival="222.00" arrivalLane="4o_0" arrivalPos="492.80" arrivalSpeed="11.33" duration="161.00" routeLength="994.90" waitingTime="64.40" waitingCount="2" stopTime="0.00" timeLoss="87.15" rerouteNo="0" devices="tripinfo_down_35" vType="typeNS@down_35" speedFactor="1.02" vaporized=""/>
    <tripinfo id="down_37" depart="62.60" departLane="3i_0" departPos="5.10" departSpeed="16.67" departDelay="0.60" arrival="222.60" arrivalLane="4o_0" arrivalPos="492.80" arrivalSpeed="11.54" duration="160.00" routeLength="994.90" waitingTime="65.60" waitingCount="2" stopTime="0.00" timeLoss="92.26" rerouteNo="0" devices="tripinfo_down_37" vType="typeNS@down_37" speedFactor="1.18" vaporized=""/>
    <tripinfo id="down_38" depart="64.20" departLane="3i_0" departPos="5.10" departSpeed="16.67" departDelay="1.20" arrival="224.60" arrivalLane="4o_0" arrivalPos="492.80" arrivalSpeed="12.15" duration="160.40" routeLength="994.90" waitingTime="66.80" waitingCount="2" stopTime="0.00" timeLoss="89.93" rerouteNo="0" devices="tripinfo_down_38" vType="typeNS@down_38" speedFactor="1.10" vaporized=""/>
    <tripinfo id="down_39" depart="65.80" departLane="3i_0" departPos="5.10" departSpeed="16.67" departDelay="1.80" arrival="235.20" arrivalLane="4o_0" arrivalPos="492.80" arrivalSpeed="10.01" duration="169.40" routeLength="994.90" waitingTime="67.80" waitingCount="2" stopTime="0.00" timeLoss="89.69" rerouteNo="0" devices="tripinfo_down_39" vType="typeNS@down_39" speedFactor="0.90" vaporized=""/>
    <tripinfo id="down_40" depart="67.40" departLane="3i_0" departPos="5.10" departSpeed="16.67" departDelay="0.40" arrival="236.00" arrivalLane="4o_0" arrivalPos="492.80" arrivalSpeed="10.26" duration="168.60" routeLength="994.90" waitingTime="68.80" waitingCount="2" stopTime="0.00" timeLoss="95.30" rerouteNo="0" devices="tripinfo_down_40" vType="typeNS@down_40" speedFactor="1.03" vaporized=""/>
    <tripinfo id="down_42" depart="72.00" departLane="3i_0" departPos="5.10" departSpeed="16.67" departDelay="0.00" arrival="236.80" arrivalLane="4o_0" arrivalPos="492.80" arrivalSpeed="10.34" duration="164.80" routeLength="994.90" waitingTime="65.40" waitingCount="2" stopTime="0.00" timeLoss="94.00" rerouteNo="0" devices="tripinfo_down_42" vType="typeNS@down_42" speedFactor="1.09" vaporized=""/>
    <tripinfo id="down_43" depart="74.00" departLane="3i_0" departPos="5.10" departSpeed="16.67" departDelay="0.00" arrival="237.80" arrivalLane="4o_0" arrivalPos="492.80" arrivalSpeed="10.77" duration="163.80" routeLength="994.90" waitingTime="67.00" waitingCount="2" stopTime="0.00" timeLoss="90.88" rerouteNo="0" devices="tripinfo_down_43" vType="typeNS@down_43" speedFactor="1.04" vaporized=""/>
    <tripinfo id="down_44" depart="76.00" departLane="3i_0" departPos="5.10" departSpeed="16.67" departDelay="0.00" arrival="239.60" arrivalLane="4o_0" arrivalPos="492.80" arrivalSpeed="11.47" duration="163.60" routeLength="994.90" waitingTime="67.40" waitingCount="2" stopTime="0.00" timeLoss="90.90" rerouteNo="0" devices="tripinfo_down_44" vType="typeNS@down_44" speedFactor="1.04" vaporized=""/>
    <tripinfo id="down_46" depart="79.00" departLane="3i_0" departPos="5.10" departSpeed="16.67" departDelay="0.00" arrival="244.00" arrivalLane="4o_0" arrivalPos="492.80" arrivalSpeed="11.08" duration="165.00" routeLength="994.90" waitingTime="66.60" waitingCount="2" stopTime="0.00" timeLoss="90.16" rerouteNo="0" devices="tripinfo_down_46" vType="typeNS@down_46" speedFactor="1.00" vaporized=""/>
    <tripinfo id="down_49" depart="87.00" departLane="3i_0" departPos="5.10" departSpeed="16.53" departDelay="0.00" arrival="254.20" arrivalLane="4o_0" arrivalPos="492.80" arrivalSpeed="9.45" duration="167.20" routeLength="994.90" waitingTime="60.20" waitingCount="2" stopTime="0.00" timeLoss="84.35" rerouteNo="0" devices="tripinfo_down_49" vType="typeNS@down_49" speedFactor="0.85" vaporized=""/>
    <tripinfo id="down_51" depart="89.00" departLane="3i_0" departPos="5.10" departSpeed="16.67" departDelay="0.00" arrival="255.00" arrivalLane="4o_0" arrivalPos="492.80" arrivalSpeed="9.89" duration="166.00" routeLength="994.90" waitingTime="62.40" waitingCount="2" stopTime="0.00" timeLoss="97.87" rerouteNo="0" devices="tripinfo_down_51" vType="typeNS@down_51" speedFactor="1.17" vaporized=""/>
    <tripinfo id="down_55" depart="95.00" departLane="3i_0" departPos="5.10" departSpeed="16.67" departDelay="0.00" arrival="256.00" arrivalLane="4o_0" arrivalPos="492.80" arrivalSpeed="9.80" duration="161.00" routeLength="994.90" waitingTime="57.80" waitingCount="2" stopTime="0.00" timeLoss="86.12" rerouteNo="0" devices="tripinfo_down_55" vType="typeNS@down_55" speedFactor="1.00" vaporized=""/>
    <tripinfo id="right_60" depart="107.00" departLane="1i_0" departPos="5.10" departSpeed="16.67" departDelay="0.00" arrival="257.60" arrivalLane="2o_0" arrivalPos="496.00" arrivalSpeed="12.03" duration="150.60" routeLength="994.90" waitingTime="20.80" waitingCount="1" stopTime="36.40" timeLoss="42.91" rerouteNo="0" devices="tripinfo_right_60" vType="typeWE@right_60" speedFactor="1.08" vaporized=""/>
    <tripinfo id="right_63" depart="112.00" departLane="1i_0" departPos="5.10" departSpeed="16.67" departDelay="0.00" arrival="264.00" arrivalLane="2o_0" arrivalPos="496.00" arrivalSpeed="10.96" duration="152.00" routeLength="994.90" waitingTime="54.40" waitingCount="2" stopTime="0.00" timeLoss="76.74" rerouteNo="0" devices="tripinfo_right_63" vType="typeWE@right_63" speedFactor="0.99" vaporized=""/>
    <tripinfo id="right_64" depart="113.60" departLane="1i_0" departPos="5.10" departSpeed="16.67" departDelay="0.60" arrival="269.00" arrivalLane="2o_0" arrivalPos="496.00" arrivalSpeed="10.42" duration="155.40" routeLength="994.90" waitingTime="56.20" waitingCount="2" stopTime="0.00" timeLoss="77.70" rerouteNo="0" devices="tripinfo_right_64" vType="typeWE@right_64" speedFactor="0.94" vaporized=""/>
    <tripinfo id="right_65" depart="116.00" departLane="1i_0" departPos="5.10" departSpeed="16.67" departDelay="0.00" arrival="274.60" arrivalLane="2o_0" arrivalPos="496.00" arrivalSpeed="9.80" duration="158.60" routeLength="994.90" waitingTime="56.20" waitingCount="2" stopTime="0.00" timeLoss="77.80" rerouteNo="0" devices="tripinfo_right_65" vType="typeWE@right_65" speedFactor="0.88" vaporized=""/>
    <tripinfo id="right_66" depart="119.00" departLane="1i_0" departPos="5.10" departSpeed="16.67" departDelay="0.00" arrival="276.40" arrivalLane="2o_0" arrivalPos="496.00" arrivalSpeed="10.01" duration="157.40" routeLength="994.90" waitingTime="55.40" waitingCount="2" stopTime="0.00" timeLoss="78.03" rerouteNo="0" devices="tripinfo_right_66" vType="typeWE@right_66" speedFactor="0.91" vaporized=""/>
    <tripinfo id="right_67" depart="122.00" departLane="1i_0" departPos="5.10" departSpeed="16.67" departDelay="0.00" arrival="278.60" arrivalLane="2o_0" arrivalPos="496.00" arrivalSpeed="10.13" duration="156.60" routeLength="994.90" waitingTime="55.20" waitingCount="2" stopTime="0.00" timeLoss="77.58" rerouteNo="0" devices="tripinfo_right_67" vType="typeWE@right_67" speedFactor="0.91" vaporized=""/>
    <tripinfo id="right_70" depart="127.00" departLane="1i_0" departPos="5.10" departSpeed="16.67" departDelay="0.00" arrival="279.40" arrivalLane="2o_0" arrivalPos="496.00" arrivalSpeed="10.33" duration="152.40" routeLength="994.90" waitingTime="52.20" waitingCount="2" stopTime="0.00" timeLoss="78.77" rerouteNo="0" devices="tripinfo_right_70" vType="typeWE@right_70" speedFactor="1.02" vaporized=""/>
    <tripinfo id="right_71" depart="131.00" departLane="1i_0" departPos="5.10" departSpeed="16.67" departDelay="0.00" arrival="281.20" arrivalLane="2o_0" arrivalPos="496.00" arrivalSpeed="10.69" duration="150.20" routeLength="994.90" waitingTime="50.80" waitingCount="2" stopTime="0.00" timeLoss="74.17" rerouteNo="0" devices="tripinfo_right_71" vType="typeWE@right_71" speedFactor="0.97" vaporized=""/>
    <tripinfo id="right_72" depart="132.60" departLane="1i_0" departPos="5.10" departSpeed="16.67" departDelay="0.60" arrival="285.00" arrivalLane="2o_0" arrivalPos="496.00" arrivalSpeed="10.44" duration="152.40" routeLength="994.90" waitingTime="52.60" waitingCount="2" stopTime="0.00" timeLoss="74.82" rerouteNo="0" devices="tripinfo_right_72" vType="typeWE@right_72" speedFactor="0.94" vaporized=""/>
    <tripinfo id="right_73" depart="134.20" departLane="1i_0" departPos="5.10" departSpeed="16.67" departDelay="0.20" arrival="285.80" arrivalLane="2o_0" arrivalPos="496.00" arrivalSpeed="10.67" duration="151.60" routeLength="994.90" waitingTime="53.20" waitingCount="2" stopTime="0.00" timeLoss="79.34" rerouteNo="0" devices="tripinfo_right_73" vType="typeWE@right_73" speedFactor="1.06" vaporized=""/>
    <tripinfo id="right_75" depart="139.00" departLane="1i_0" departPos="5.10" departSpeed="16.67" departDelay="0.00" arrival="288.60" arrivalLane="2o_0" arrivalPos="496.00" arrivalSpeed="10.92" duration="149.60" routeLength="994.90" waitingTime="50.20" waitingCount="2" stopTime="0.00" timeLoss="74.08" rerouteNo="0" devices="tripinfo_right_75" vType="typeWE@right_75" speedFactor="0.98" vaporized=""/>
    <tripinfo id="right_78" depart="145.00" departLane="1i_0" departPos="5.10" departSpeed="16.67" departDelay="0.00" arrival="290.40" arrivalLane="2o_0" arrivalPos="496.00" arrivalSpeed="11.13" duration="145.40" routeLength="994.90" waitingTime="47.00" waitingCount="2" stopTime="0.00" timeLoss="71.00" rerouteNo="0" devices="tripinfo_right_78" vType="typeWE@right_78" speedFactor="1.01" vaporized=""/>
    <tripinfo id="right_79" depart="148.00" departLane="1i_0" departPos="5.10" departSpeed="16.67" departDelay="0.00" arrival="291.40" arrivalLane="2o_0" arrivalPos="496.00" arrivalSpeed="11.37" duration="143.40" routeLength="994.90" waitingTime="47.00" waitingCount="2" stopTime="0.00" timeLoss="72.24" rerouteNo="0" devices="tripinfo_right_79" vType="typeWE@right_79" speedFactor="1.09" vaporized=""/>
</tripinfos>
