<?xml version="1.0" encoding="UTF-8"?>

<!-- generated on 2021-11-05 18:47:34 by Eclipse SUMO GUI Version 1.10.0
<configuration xmlns:xsi="http://www.w3.org/2001/XMLSchema-instance" xsi:noNamespaceSchemaLocation="http://sumo.dlr.de/xsd/sumoConfiguration.xsd">

    <input>
        <net-file value="data/cross.net.xml"/>
        <route-files value="data/cross.rou.xml"/>
    </input>

    <output>
        <tripinfo-output value="data/out-tripinfo.xml"/>
    </output>

    <time>
        <begin value="0"/>
        <step-length value="0.2"/>
    </time>

    <processing>
        <collision.mingap-factor value="0"/>
    </processing>

    <report>
        <verbose value="true"/>
        <no-step-log value="true"/>
    </report>

    <traci_server>
        <remote-port value="51309"/>
    </traci_server>

    <gui_only>
        <tracker-interval value="0.2"/>
    </gui_only>

</configuration>
-->

<tripinfos xmlns:xsi="http://www.w3.org/2001/XMLSchema-instance" xsi:noNamespaceSchemaLocation="http://sumo.dlr.de/xsd/tripinfo_file.xsd">
    <tripinfo id="right_0" depart="0.00" departLane="1to2_0" departPos="5.10" departSpeed="14.72" departDelay="0.00" arrival="101.60" arrivalLane="outr_0" arrivalPos="492.80" arrivalSpeed="14.72" duration="101.60" routeLength="1494.90" waitingTime="0.00" waitingCount="0" stopTime="0.00" timeLoss="0.00" rerouteNo="0" devices="tripinfo_right_0" vType="Car@right_0" speedFactor="1.06" vaporized=""/>
    <tripinfo id="right_3" depart="3.00" departLane="1to2_0" departPos="5.10" departSpeed="15.04" departDelay="0.00" arrival="103.00" arrivalLane="outr_0" arrivalPos="492.80" arrivalSpeed="14.93" duration="100.00" routeLength="1494.90" waitingTime="0.00" waitingCount="0" stopTime="0.00" timeLoss="0.49" rerouteNo="0" devices="tripinfo_right_3" vType="Car@right_3" speedFactor="1.08" vaporized=""/>
    <tripinfo id="left_10" depart="8.00" departLane="8to7_0" departPos="5.10" departSpeed="15.15" departDelay="0.00" arrival="106.80" arrivalLane="outl_0" arrivalPos="492.80" arrivalSpeed="15.15" duration="98.80" routeLength="1494.90" waitingTime="0.00" waitingCount="0" stopTime="0.00" timeLoss="0.00" rerouteNo="0" devices="tripinfo_left_10" vType="Car@left_10" speedFactor="1.09" vaporized=""/>
    <tripinfo id="right_6" depart="5.00" departLane="1to2_0" departPos="5.10" departSpeed="14.53" departDelay="0.00" arrival="108.00" arrivalLane="outr_0" arrivalPos="492.80" arrivalSpeed="14.52" duration="103.00" routeLength="1494.90" waitingTime="0.00" waitingCount="0" stopTime="0.00" timeLoss="0.08" rerouteNo="0" devices="tripinfo_right_6" vType="Car@right_6" speedFactor="1.05" vaporized=""/>
    <tripinfo id="up_2" depart="1.00" departLane="12to7_0" departPos="5.10" departSpeed="14.03" departDelay="0.00" arrival="119.80" arrivalLane="outn_0" arrivalPos="496.00" arrivalSpeed="14.03" duration="118.80" routeLength="1494.90" waitingTime="0.40" waitingCount="1" stopTime="0.20" timeLoss="11.92" rerouteNo="0" devices="tripinfo_up_2" vType="Car@up_2" speedFactor="1.01" vaporized=""/>
    <tripinfo id="down_1" depart="0.00" departLane="9to2_0" departPos="5.10" departSpeed="13.03" departDelay="0.00" arrival="125.80" arrivalLane="outs_0" arrivalPos="496.00" arrivalSpeed="13.03" duration="125.80" routeLength="1494.90" waitingTime="0.20" waitingCount="1" stopTime="0.20" timeLoss="10.81" rerouteNo="0" devices="tripinfo_down_1" vType="Car@down_1" speedFactor="0.94" vaporized=""/>
    <tripinfo id="down_4" depart="3.00" departLane="9to2_0" departPos="5.10" departSpeed="14.31" departDelay="0.00" arrival="126.60" arrivalLane="outs_0" arrivalPos="496.00" arrivalSpeed="13.22" duration="123.60" routeLength="1494.90" waitingTime="1.60" waitingCount="1" stopTime="0.00" timeLoss="19.00" rerouteNo="0" devices="tripinfo_down_4" vType="Car@down_4" speedFactor="1.03" vaporized=""/>
    <tripinfo id="up_5" depart="3.00" departLane="12to7_0" departPos="5.10" departSpeed="11.54" departDelay="0.00" arrival="132.80" arrivalLane="outn_0" arrivalPos="496.00" arrivalSpeed="11.54" duration="129.80" routeLength="1494.90" waitingTime="0.00" waitingCount="0" stopTime="0.00" timeLoss="0.18" rerouteNo="0" devices="tripinfo_up_5" vType="Car@up_5" speedFactor="0.83" vaporized=""/>
    <tripinfo id="up_7" depart="5.00" departLane="12to7_0" departPos="5.10" departSpeed="12.31" departDelay="0.00" arrival="133.60" arrivalLane="outn_0" arrivalPos="496.00" arrivalSpeed="11.68" duration="128.60" routeLength="1494.90" waitingTime="0.00" waitingCount="0" stopTime="0.00" timeLoss="7.09" rerouteNo="0" devices="tripinfo_up_7" vType="Car@up_7" speedFactor="0.89" vaporized=""/>
    <tripinfo id="up_17" depart="14.00" departLane="12to7_0" departPos="5.10" departSpeed="13.08" departDelay="0.00" arrival="134.40" arrivalLane="outn_0" arrivalPos="496.00" arrivalSpeed="11.78" duration="120.40" routeLength="1494.90" waitingTime="0.00" waitingCount="0" stopTime="0.00" timeLoss="6.02" rerouteNo="0" devices="tripinfo_up_17" vType="Car@up_17" speedFactor="0.94" vaporized=""/>
    <tripinfo id="up_19" depart="18.00" departLane="12to7_0" departPos="5.10" departSpeed="16.09" departDelay="0.00" arrival="135.20" arrivalLane="outn_0" arrivalPos="496.00" arrivalSpeed="12.01" duration="117.20" routeLength="1494.90" waitingTime="0.00" waitingCount="0" stopTime="0.00" timeLoss="24.14" rerouteNo="0" devices="tripinfo_up_19" vType="Car@up_19" speedFactor="1.16" vaporized=""/>
    <tripinfo id="left_14" depart="11.00" departLane="8to7_0" departPos="5.10" departSpeed="13.77" departDelay="0.00" arrival="135.60" arrivalLane="outl_0" arrivalPos="492.80" arrivalSpeed="13.77" duration="124.60" routeLength="1494.90" waitingTime="0.40" waitingCount="1" stopTime="4.20" timeLoss="11.71" rerouteNo="0" devices="tripinfo_left_14" vType="Car@left_14" speedFactor="0.99" vaporized=""/>
    <tripinfo id="down_9" depart="8.00" departLane="9to2_0" departPos="5.10" departSpeed="11.90" departDelay="0.00" arrival="136.40" arrivalLane="outs_0" arrivalPos="496.00" arrivalSpeed="11.90" duration="128.40" routeLength="1494.90" waitingTime="0.00" waitingCount="0" stopTime="0.00" timeLoss="2.70" rerouteNo="0" devices="tripinfo_down_9" vType="Car@down_9" speedFactor="0.86" vaporized=""/>
    <tripinfo id="down_12" depart="10.80" departLane="9to2_0" departPos="5.10" departSpeed="14.54" departDelay="1.80" arrival="137.00" arrivalLane="outs_0" arrivalPos="496.00" arrivalSpeed="12.16" duration="126.20" routeLength="1494.90" waitingTime="0.00" waitingCount="0" stopTime="0.00" timeLoss="23.40" rerouteNo="0" devices="tripinfo_down_12" vType="Car@down_12" speedFactor="1.05" vaporized=""/>
    <tripinfo id="down_13" depart="12.80" departLane="9to2_0" departPos="5.10" departSpeed="15.60" departDelay="2.80" arrival="137.80" arrivalLane="outs_0" arrivalPos="496.00" arrivalSpeed="12.32" duration="125.00" routeLength="1494.90" waitingTime="0.00" waitingCount="0" stopTime="0.00" timeLoss="29.04" rerouteNo="0" devices="tripinfo_down_13" vType="Car@down_13" speedFactor="1.12" vaporized=""/>
    <tripinfo id="right_8" depart="8.00" departLane="1to2_0" departPos="5.10" departSpeed="13.03" departDelay="0.00" arrival="139.20" arrivalLane="outr_0" arrivalPos="492.80" arrivalSpeed="13.03" duration="131.20" routeLength="1494.90" waitingTime="0.60" waitingCount="1" stopTime="4.80" timeLoss="11.47" rerouteNo="0" devices="tripinfo_right_8" vType="Car@right_8" speedFactor="0.94" vaporized=""/>
    <tripinfo id="right_11" depart="10.20" departLane="1to2_0" departPos="5.10" departSpeed="14.26" departDelay="1.20" arrival="139.80" arrivalLane="outr_0" arrivalPos="492.80" arrivalSpeed="13.17" duration="129.60" routeLength="1494.90" waitingTime="6.20" waitingCount="1" stopTime="0.00" timeLoss="24.69" rerouteNo="0" devices="tripinfo_right_11" vType="Car@right_11" speedFactor="1.03" vaporized=""/>
    <tripinfo id="right_15" depart="12.00" departLane="1to2_0" departPos="5.10" departSpeed="12.87" departDelay="0.00" arrival="145.40" arrivalLane="outr_0" arrivalPos="492.80" arrivalSpeed="12.87" duration="133.40" routeLength="1494.90" waitingTime="5.60" waitingCount="1" stopTime="0.00" timeLoss="17.11" rerouteNo="0" devices="tripinfo_right_15" vType="Car@right_15" speedFactor="0.93" vaporized=""/>
    <tripinfo id="right_18_emergency" depart="18.00" departLane="1to2_0" departPos="5.10" departSpeed="13.00" departDelay="0.00" arrival="147.40" arrivalLane="outr_0" arrivalPos="492.80" arrivalSpeed="12.98" duration="129.40" routeLength="1494.90" waitingTime="2.40" waitingCount="1" stopTime="0.00" timeLoss="14.41" rerouteNo="0" devices="tripinfo_right_18_emergency" vType="Car@right_18_emergency" speedFactor="0.94" vaporized=""/>
    <tripinfo id="right_27" depart="27.00" departLane="1to2_0" departPos="5.10" departSpeed="13.18" departDelay="0.00" arrival="148.80" arrivalLane="outr_0" arrivalPos="492.80" arrivalSpeed="13.06" duration="121.80" routeLength="1494.90" waitingTime="0.00" waitingCount="0" stopTime="0.00" timeLoss="8.25" rerouteNo="0" devices="tripinfo_right_27" vType="Car@right_27" speedFactor="0.95" vaporized=""/>
    <tripinfo id="left_23" depart="22.00" departLane="8to7_0" departPos="5.10" departSpeed="12.36" departDelay="0.00" arrival="149.60" arrivalLane="outl_0" arrivalPos="492.80" arrivalSpeed="12.36" duration="127.60" routeLength="1494.90" waitingTime="0.00" waitingCount="0" stopTime="0.00" timeLoss="6.61" rerouteNo="0" devices="tripinfo_left_23" vType="Car@left_23" speedFactor="0.89" vaporized=""/>
    <tripinfo id="left_26" depart="26.00" departLane="8to7_0" departPos="5.10" departSpeed="12.74" departDelay="0.00" arrival="150.60" arrivalLane="outl_0" arrivalPos="492.80" arrivalSpeed="12.45" duration="124.60" routeLength="1494.90" waitingTime="0.00" waitingCount="0" stopTime="0.00" timeLoss="7.26" rerouteNo="0" devices="tripinfo_left_26" vType="Car@left_26" speedFactor="0.92" vaporized=""/>
    <tripinfo id="left_28_emergency" depart="28.80" departLane="8to7_0" departPos="5.10" departSpeed="15.72" departDelay="0.80" arrival="151.40" arrivalLane="outl_0" arrivalPos="492.80" arrivalSpeed="12.75" duration="122.60" routeLength="1494.90" waitingTime="0.00" waitingCount="0" stopTime="0.00" timeLoss="27.39" rerouteNo="0" devices="tripinfo_left_28_emergency" vType="Car@left_28_emergency" speedFactor="1.13" vaporized=""/>
    <tripinfo id="left_35" depart="35.00" departLane="8to7_0" departPos="5.10" departSpeed="14.16" departDelay="0.00" arrival="152.00" arrivalLane="outl_0" arrivalPos="492.80" arrivalSpeed="12.57" duration="117.00" routeLength="1494.90" waitingTime="0.00" waitingCount="0" stopTime="0.00" timeLoss="11.43" rerouteNo="0" devices="tripinfo_left_35" vType="Car@left_35" speedFactor="1.02" vaporized=""/>
    <tripinfo id="left_38" depart="37.00" departLane="8to7_0" departPos="5.10" departSpeed="15.31" departDelay="0.00" arrival="152.80" arrivalLane="outl_0" arrivalPos="492.80" arrivalSpeed="12.72" duration="115.80" routeLength="1494.90" waitingTime="0.00" waitingCount="0" stopTime="0.00" timeLoss="18.03" rerouteNo="0" devices="tripinfo_left_38" vType="Car@left_38" speedFactor="1.10" vaporized=""/>
    <tripinfo id="up_21" depart="21.00" departLane="12to7_0" departPos="5.10" departSpeed="14.03" departDelay="0.00" arrival="156.60" arrivalLane="outn_0" arrivalPos="496.00" arrivalSpeed="14.03" duration="135.60" routeLength="1494.90" waitingTime="0.80" waitingCount="2" stopTime="5.20" timeLoss="23.71" rerouteNo="0" devices="tripinfo_up_21" vType="Car@up_21" speedFactor="1.01" vaporized=""/>
    <tripinfo id="up_32" depart="32.00" departLane="12to7_0" departPos="5.10" departSpeed="13.96" departDelay="0.00" arrival="158.20" arrivalLane="outn_0" arrivalPos="496.00" arrivalSpeed="13.90" duration="126.20" routeLength="1494.90" waitingTime="0.40" waitingCount="1" stopTime="1.80" timeLoss="17.14" rerouteNo="0" devices="tripinfo_up_32" vType="Car@up_32" speedFactor="1.01" vaporized=""/>
    <tripinfo id="up_37" depart="37.00" departLane="12to7_0" departPos="5.10" departSpeed="16.39" departDelay="0.00" arrival="158.80" arrivalLane="outn_0" arrivalPos="496.00" arrivalSpeed="14.11" duration="121.80" routeLength="1494.90" waitingTime="3.20" waitingCount="1" stopTime="0.00" timeLoss="30.43" rerouteNo="0" devices="tripinfo_up_37" vType="Car@up_37" speedFactor="1.18" vaporized=""/>
    <tripinfo id="down_16" depart="14.00" departLane="9to2_0" departPos="5.10" departSpeed="12.20" departDelay="0.00" arrival="159.20" arrivalLane="outs_0" arrivalPos="496.00" arrivalSpeed="12.20" duration="145.20" routeLength="1494.90" waitingTime="0.60" waitingCount="1" stopTime="11.40" timeLoss="11.27" rerouteNo="0" devices="tripinfo_down_16" vType="Car@down_16" speedFactor="0.88" vaporized=""/>
    <tripinfo id="up_40" depart="40.00" departLane="12to7_0" departPos="5.10" departSpeed="14.31" departDelay="0.00" arrival="159.60" arrivalLane="outn_0" arrivalPos="496.00" arrivalSpeed="13.97" duration="119.60" routeLength="1494.90" waitingTime="0.00" waitingCount="0" stopTime="0.00" timeLoss="15.11" rerouteNo="0" devices="tripinfo_up_40" vType="Car@up_40" speedFactor="1.03" vaporized=""/>
    <tripinfo id="down_20" depart="19.00" departLane="9to2_0" departPos="5.10" departSpeed="14.14" departDelay="0.00" arrival="160.00" arrivalLane="outs_0" arrivalPos="496.00" arrivalSpeed="12.47" duration="141.00" routeLength="1494.90" waitingTime="13.00" waitingCount="1" stopTime="0.00" timeLoss="35.21" rerouteNo="0" devices="tripinfo_down_20" vType="Car@down_20" speedFactor="1.02" vaporized=""/>
    <tripinfo id="down_22" depart="22.00" departLane="9to2_0" departPos="5.10" departSpeed="13.54" departDelay="0.00" arrival="160.80" arrivalLane="outs_0" arrivalPos="496.00" arrivalSpeed="12.41" duration="138.80" routeLength="1494.90" waitingTime="12.60" waitingCount="1" stopTime="0.00" timeLoss="28.30" rerouteNo="0" devices="tripinfo_down_22" vType="Car@down_22" speedFactor="0.98" vaporized=""/>
    <tripinfo id="right_33" depart="33.00" departLane="1to2_0" departPos="5.10" departSpeed="16.28" departDelay="0.00" arrival="168.00" arrivalLane="outr_0" arrivalPos="492.80" arrivalSpeed="16.28" duration="135.00" routeLength="1494.90" waitingTime="0.60" waitingCount="1" stopTime="24.60" timeLoss="18.46" rerouteNo="0" devices="tripinfo_right_33" vType="Car@right_33" speedFactor="1.17" vaporized=""/>
    <tripinfo id="down_24" depart="23.00" departLane="9to2_0" departPos="5.10" departSpeed="11.47" departDelay="0.00" arrival="172.00" arrivalLane="outs_0" arrivalPos="496.00" arrivalSpeed="11.47" duration="149.00" routeLength="1494.90" waitingTime="7.80" waitingCount="1" stopTime="0.00" timeLoss="18.54" rerouteNo="0" devices="tripinfo_down_24" vType="Car@down_24" speedFactor="0.83" vaporized=""/>
    <tripinfo id="down_25" depart="25.00" departLane="9to2_0" departPos="5.10" departSpeed="12.12" departDelay="1.00" arrival="173.00" arrivalLane="outs_0" arrivalPos="496.00" arrivalSpeed="11.62" duration="148.00" routeLength="1494.90" waitingTime="9.80" waitingCount="1" stopTime="0.00" timeLoss="24.49" rerouteNo="0" devices="tripinfo_down_25" vType="Car@down_25" speedFactor="0.87" vaporized=""/>
    <tripinfo id="down_29" depart="30.00" departLane="9to2_0" departPos="5.10" departSpeed="12.94" departDelay="0.00" arrival="173.60" arrivalLane="outs_0" arrivalPos="496.00" arrivalSpeed="11.65" duration="143.60" routeLength="1494.90" waitingTime="11.40" waitingCount="1" stopTime="0.00" timeLoss="28.04" rerouteNo="0" devices="tripinfo_down_29" vType="Car@down_29" speedFactor="0.93" vaporized=""/>
    <tripinfo id="down_30" depart="33.20" departLane="9to2_0" departPos="5.10" departSpeed="16.37" departDelay="2.20" arrival="174.40" arrivalLane="outs_0" arrivalPos="496.00" arrivalSpeed="11.95" duration="141.20" routeLength="1494.90" waitingTime="13.40" waitingCount="1" stopTime="0.00" timeLoss="49.79" rerouteNo="0" devices="tripinfo_down_30" vType="Car@down_30" speedFactor="1.18" vaporized=""/>
    <tripinfo id="down_31" depart="34.80" departLane="9to2_0" departPos="5.10" departSpeed="16.04" departDelay="2.80" arrival="175.00" arrivalLane="outs_0" arrivalPos="496.00" arrivalSpeed="11.84" duration="140.20" routeLength="1494.90" waitingTime="14.80" waitingCount="1" stopTime="0.00" timeLoss="46.95" rerouteNo="0" devices="tripinfo_down_31" vType="Car@down_31" speedFactor="1.15" vaporized=""/>
    <tripinfo id="left_42" depart="44.00" departLane="8to7_0" departPos="5.10" departSpeed="15.17" departDelay="0.00" arrival="175.60" arrivalLane="outl_0" arrivalPos="492.80" arrivalSpeed="15.15" duration="131.60" routeLength="1494.90" waitingTime="0.80" waitingCount="2" stopTime="6.00" timeLoss="26.84" rerouteNo="0" devices="tripinfo_left_42" vType="Car@left_42" speedFactor="1.09" vaporized=""/>
    <tripinfo id="left_43" depart="45.40" departLane="8to7_0" departPos="5.10" departSpeed="14.41" departDelay="0.40" arrival="179.80" arrivalLane="outl_0" arrivalPos="492.80" arrivalSpeed="14.41" duration="134.40" routeLength="1494.90" waitingTime="5.40" waitingCount="2" stopTime="0.00" timeLoss="30.63" rerouteNo="0" devices="tripinfo_left_43" vType="Car@left_43" speedFactor="1.04" vaporized=""/>
    <tripinfo id="right_34" depart="35.00" departLane="1to2_0" departPos="5.10" departSpeed="13.82" departDelay="0.00" arrival="180.20" arrivalLane="outr_0" arrivalPos="492.80" arrivalSpeed="13.82" duration="145.20" routeLength="1494.90" waitingTime="24.80" waitingCount="1" stopTime="0.00" timeLoss="36.96" rerouteNo="0" devices="tripinfo_right_34" vType="Car@right_34" speedFactor="0.99" vaporized=""/>
    <tripinfo id="left_45" depart="48.00" departLane="8to7_0" departPos="5.10" departSpeed="15.11" departDelay="0.00" arrival="181.60" arrivalLane="outl_0" arrivalPos="492.80" arrivalSpeed="14.99" duration="133.60" routeLength="1494.90" waitingTime="8.60" waitingCount="2" stopTime="0.00" timeLoss="34.50" rerouteNo="0" devices="tripinfo_left_45" vType="Car@left_45" speedFactor="1.09" vaporized=""/>
    <tripinfo id="right_41" depart="44.00" departLane="1to2_0" departPos="5.10" departSpeed="13.29" departDelay="0.00" arrival="185.60" arrivalLane="outr_0" arrivalPos="492.80" arrivalSpeed="13.29" duration="141.60" routeLength="1494.90" waitingTime="16.80" waitingCount="1" stopTime="0.00" timeLoss="28.99" rerouteNo="0" devices="tripinfo_right_41" vType="Car@right_41" speedFactor="0.96" vaporized=""/>
    <tripinfo id="right_44" depart="46.20" departLane="1to2_0" departPos="5.10" departSpeed="14.49" departDelay="0.20" arrival="186.20" arrivalLane="outr_0" arrivalPos="492.80" arrivalSpeed="13.43" duration="140.00" routeLength="1494.90" waitingTime="18.60" waitingCount="1" stopTime="0.00" timeLoss="36.81" rerouteNo="0" devices="tripinfo_right_44" vType="Car@right_44" speedFactor="1.04" vaporized=""/>
    <tripinfo id="right_46" depart="50.00" departLane="1to2_0" departPos="5.10" departSpeed="13.85" departDelay="0.00" arrival="188.20" arrivalLane="outr_0" arrivalPos="492.80" arrivalSpeed="13.79" duration="138.20" routeLength="1494.90" waitingTime="17.80" waitingCount="1" stopTime="0.00" timeLoss="30.22" rerouteNo="0" devices="tripinfo_right_46" vType="Car@right_46" speedFactor="1.00" vaporized=""/>
    <tripinfo id="left_49" depart="51.00" departLane="8to7_0" departPos="5.10" departSpeed="11.81" departDelay="0.00" arrival="190.20" arrivalLane="outl_0" arrivalPos="492.80" arrivalSpeed="11.81" duration="139.20" routeLength="1494.90" waitingTime="0.00" waitingCount="0" stopTime="0.00" timeLoss="12.51" rerouteNo="0" devices="tripinfo_left_49" vType="Car@left_49" speedFactor="0.85" vaporized=""/>
    <tripinfo id="left_51" depart="54.80" departLane="8to7_0" departPos="5.10" departSpeed="16.24" departDelay="0.80" arrival="190.80" arrivalLane="outl_0" arrivalPos="492.80" arrivalSpeed="12.15" duration="136.00" routeLength="1494.90" waitingTime="0.00" waitingCount="0" stopTime="0.00" timeLoss="43.88" rerouteNo="0" devices="tripinfo_left_51" vType="Car@left_51" speedFactor="1.17" vaporized=""/>
    <tripinfo id="left_53" depart="56.20" departLane="8to7_0" departPos="5.10" departSpeed="15.22" departDelay="0.20" arrival="191.60" arrivalLane="outl_0" arrivalPos="492.80" arrivalSpeed="12.22" duration="135.40" routeLength="1494.90" waitingTime="0.00" waitingCount="0" stopTime="0.00" timeLoss="37.04" rerouteNo="0" devices="tripinfo_left_53" vType="Car@left_53" speedFactor="1.10" vaporized=""/>
    <tripinfo id="left_56" depart="61.00" departLane="8to7_0" departPos="5.10" departSpeed="12.49" departDelay="0.00" arrival="196.80" arrivalLane="outl_0" arrivalPos="492.80" arrivalSpeed="12.48" duration="135.80" routeLength="1494.90" waitingTime="0.80" waitingCount="1" stopTime="0.00" timeLoss="15.93" rerouteNo="0" devices="tripinfo_left_56" vType="Car@left_56" speedFactor="0.90" vaporized=""/>
    <tripinfo id="left_57" depart="64.20" departLane="8to7_0" departPos="5.10" departSpeed="15.87" departDelay="2.20" arrival="197.40" arrivalLane="outl_0" arrivalPos="492.80" arrivalSpeed="12.78" duration="133.20" routeLength="1494.90" waitingTime="2.20" waitingCount="1" stopTime="0.00" timeLoss="38.93" rerouteNo="0" devices="tripinfo_left_57" vType="Car@left_57" speedFactor="1.14" vaporized=""/>
    <tripinfo id="up_54" depart="58.00" departLane="12to7_0" departPos="5.10" departSpeed="13.93" departDelay="0.00" arrival="198.20" arrivalLane="outn_0" arrivalPos="496.00" arrivalSpeed="13.93" duration="140.20" routeLength="1494.90" waitingTime="0.80" waitingCount="2" stopTime="8.60" timeLoss="24.22" rerouteNo="0" devices="tripinfo_up_54" vType="Car@up_54" speedFactor="1.00" vaporized=""/>
    <tripinfo id="left_61" depart="69.00" departLane="8to7_0" departPos="5.10" departSpeed="15.55" departDelay="0.00" arrival="198.20" arrivalLane="outl_0" arrivalPos="492.80" arrivalSpeed="13.15" duration="129.20" routeLength="1494.90" waitingTime="1.40" waitingCount="1" stopTime="0.00" timeLoss="32.91" rerouteNo="0" devices="tripinfo_left_61" vType="Car@left_61" speedFactor="1.12" vaporized=""/>
    <tripinfo id="left_68" depart="80.00" departLane="8to7_0" departPos="5.10" departSpeed="14.44" departDelay="0.00" arrival="199.40" arrivalLane="outl_0" arrivalPos="492.80" arrivalSpeed="14.00" duration="119.40" routeLength="1494.90" waitingTime="0.20" waitingCount="1" stopTime="0.20" timeLoss="15.60" rerouteNo="0" devices="tripinfo_left_68" vType="Car@left_68" speedFactor="1.04" vaporized=""/>
    <tripinfo id="left_70" depart="81.60" departLane="8to7_0" departPos="5.10" departSpeed="14.21" departDelay="0.60" arrival="201.00" arrivalLane="outl_0" arrivalPos="492.80" arrivalSpeed="14.13" duration="119.40" routeLength="1494.90" waitingTime="0.80" waitingCount="1" stopTime="0.00" timeLoss="14.01" rerouteNo="0" devices="tripinfo_left_70" vType="Car@left_70" speedFactor="1.02" vaporized=""/>
    <tripinfo id="up_59" depart="67.00" departLane="12to7_0" departPos="5.10" departSpeed="13.47" departDelay="0.00" arrival="203.00" arrivalLane="outn_0" arrivalPos="496.00" arrivalSpeed="13.46" duration="136.00" routeLength="1494.90" waitingTime="1.40" waitingCount="2" stopTime="0.00" timeLoss="24.91" rerouteNo="0" devices="tripinfo_up_59" vType="Car@up_59" speedFactor="0.97" vaporized=""/>
    <tripinfo id="up_63" depart="75.00" departLane="12to7_0" departPos="5.10" departSpeed="13.71" departDelay="0.00" arrival="205.80" arrivalLane="outn_0" arrivalPos="496.00" arrivalSpeed="13.69" duration="130.80" routeLength="1494.90" waitingTime="2.60" waitingCount="1" stopTime="0.00" timeLoss="21.65" rerouteNo="0" devices="tripinfo_up_63" vType="Car@up_63" speedFactor="0.99" vaporized=""/>
    <tripinfo id="left_72" depart="82.80" departLane="8to7_0" departPos="5.10" departSpeed="13.06" departDelay="0.80" arrival="208.80" arrivalLane="outl_0" arrivalPos="492.80" arrivalSpeed="13.06" duration="126.00" routeLength="1494.90" waitingTime="0.00" waitingCount="0" stopTime="0.00" timeLoss="11.48" rerouteNo="0" devices="tripinfo_left_72" vType="Car@left_72" speedFactor="0.94" vaporized=""/>
    <tripinfo id="right_48" depart="51.20" departLane="1to2_0" departPos="5.10" departSpeed="12.18" departDelay="0.20" arrival="214.80" arrivalLane="outr_0" arrivalPos="492.80" arrivalSpeed="12.18" duration="163.60" routeLength="1494.90" waitingTime="15.00" waitingCount="2" stopTime="3.40" timeLoss="37.28" rerouteNo="0" devices="tripinfo_right_48" vType="Car@right_48" speedFactor="0.88" vaporized=""/>
    <tripinfo id="down_36" depart="36.00" departLane="9to2_0" departPos="5.10" departSpeed="13.52" departDelay="0.00" arrival="217.80" arrivalLane="outs_0" arrivalPos="496.00" arrivalSpeed="13.52" duration="181.80" routeLength="1494.90" waitingTime="15.00" waitingCount="3" stopTime="24.20" timeLoss="46.86" rerouteNo="0" devices="tripinfo_down_36" vType="Car@down_36" speedFactor="0.97" vaporized=""/>
    <tripinfo id="right_50" depart="52.80" departLane="1to2_0" departPos="5.10" departSpeed="11.87" departDelay="0.80" arrival="218.40" arrivalLane="outr_0" arrivalPos="492.80" arrivalSpeed="11.87" duration="165.60" routeLength="1494.90" waitingTime="18.00" waitingCount="2" stopTime="0.00" timeLoss="39.61" rerouteNo="0" devices="tripinfo_right_50" vType="Car@right_50" speedFactor="0.85" vaporized=""/>
    <tripinfo id="right_58" depart="63.00" departLane="1to2_0" departPos="5.10" departSpeed="14.22" departDelay="0.00" arrival="219.20" arrivalLane="outr_0" arrivalPos="492.80" arrivalSpeed="12.19" duration="156.20" routeLength="1494.90" waitingTime="18.60" waitingCount="2" stopTime="0.00" timeLoss="50.89" rerouteNo="0" devices="tripinfo_right_58" vType="Car@right_58" speedFactor="1.02" vaporized=""/>
    <tripinfo id="up_76" depart="89.00" departLane="12to7_0" departPos="5.10" departSpeed="14.34" departDelay="0.00" arrival="221.60" arrivalLane="outn_0" arrivalPos="496.00" arrivalSpeed="14.34" duration="132.60" routeLength="1494.90" waitingTime="0.80" waitingCount="2" stopTime="1.60" timeLoss="26.69" rerouteNo="0" devices="tripinfo_up_76" vType="Car@up_76" speedFactor="1.03" vaporized=""/>
    <tripinfo id="down_39" depart="38.00" departLane="9to2_0" departPos="5.10" departSpeed="12.51" departDelay="0.00" arrival="223.80" arrivalLane="outs_0" arrivalPos="496.00" arrivalSpeed="12.51" duration="185.80" routeLength="1494.90" waitingTime="35.80" waitingCount="2" stopTime="0.00" timeLoss="66.26" rerouteNo="0" devices="tripinfo_down_39" vType="Car@down_39" speedFactor="0.90" vaporized=""/>
    <tripinfo id="up_77" depart="91.00" departLane="12to7_0" departPos="5.10" departSpeed="13.64" departDelay="0.00" arrival="226.40" arrivalLane="outn_0" arrivalPos="496.00" arrivalSpeed="13.64" duration="135.40" routeLength="1494.90" waitingTime="1.40" waitingCount="1" stopTime="0.00" timeLoss="25.78" rerouteNo="0" devices="tripinfo_up_77" vType="Car@up_77" speedFactor="0.98" vaporized=""/>
    <tripinfo id="down_47" depart="50.00" departLane="9to2_0" departPos="5.10" departSpeed="12.51" departDelay="0.00" arrival="227.40" arrivalLane="outs_0" arrivalPos="496.00" arrivalSpeed="12.50" duration="177.40" routeLength="1494.90" waitingTime="26.20" waitingCount="2" stopTime="0.00" timeLoss="57.74" rerouteNo="0" devices="tripinfo_down_47" vType="Car@down_47" speedFactor="0.90" vaporized=""/>
    <tripinfo id="down_52" depart="56.00" departLane="9to2_0" departPos="5.10" departSpeed="14.12" departDelay="0.00" arrival="228.20" arrivalLane="outs_0" arrivalPos="496.00" arrivalSpeed="12.85" duration="172.20" routeLength="1494.90" waitingTime="29.00" waitingCount="3" stopTime="0.00" timeLoss="66.19" rerouteNo="0" devices="tripinfo_down_52" vType="Car@down_52" speedFactor="1.02" vaporized=""/>
    <tripinfo id="left_83" depart="101.00" departLane="8to7_0" departPos="5.10" departSpeed="13.43" departDelay="0.00" arrival="228.40" arrivalLane="outl_0" arrivalPos="492.80" arrivalSpeed="13.43" duration="127.40" routeLength="1494.90" waitingTime="0.40" waitingCount="1" stopTime="3.40" timeLoss="12.64" rerouteNo="0" devices="tripinfo_left_83" vType="Car@left_83" speedFactor="0.97" vaporized=""/>
    <tripinfo id="up_78" depart="95.00" departLane="12to7_0" departPos="5.10" departSpeed="13.99" departDelay="0.00" arrival="228.80" arrivalLane="outn_0" arrivalPos="496.00" arrivalSpeed="13.96" duration="133.80" routeLength="1494.90" waitingTime="2.00" waitingCount="2" stopTime="0.00" timeLoss="26.80" rerouteNo="0" devices="tripinfo_up_78" vType="Car@up_78" speedFactor="1.01" vaporized=""/>
    <tripinfo id="left_88" depart="104.00" departLane="8to7_0" departPos="5.10" departSpeed="13.99" departDelay="0.00" arrival="229.60" arrivalLane="outl_0" arrivalPos="492.80" arrivalSpeed="13.71" duration="125.60" routeLength="1494.90" waitingTime="5.60" waitingCount="1" stopTime="0.00" timeLoss="18.55" rerouteNo="0" devices="tripinfo_left_88" vType="Car@left_88" speedFactor="1.01" vaporized=""/>
    <tripinfo id="left_90" depart="105.60" departLane="8to7_0" departPos="5.10" departSpeed="14.12" departDelay="0.60" arrival="231.40" arrivalLane="outl_0" arrivalPos="492.80" arrivalSpeed="14.05" duration="125.80" routeLength="1494.90" waitingTime="7.40" waitingCount="1" stopTime="0.00" timeLoss="19.84" rerouteNo="0" devices="tripinfo_left_90" vType="Car@left_90" speedFactor="1.02" vaporized=""/>
    <tripinfo id="up_86" depart="102.00" departLane="12to7_0" departPos="5.10" departSpeed="13.91" departDelay="0.00" arrival="231.60" arrivalLane="outn_0" arrivalPos="496.00" arrivalSpeed="13.90" duration="129.60" routeLength="1494.90" waitingTime="1.80" waitingCount="1" stopTime="0.00" timeLoss="22.03" rerouteNo="0" devices="tripinfo_up_86" vType="Car@up_86" speedFactor="1.00" vaporized=""/>
    <tripinfo id="up_87" depart="103.80" departLane="12to7_0" departPos="5.10" departSpeed="14.48" departDelay="0.80" arrival="233.40" arrivalLane="outn_0" arrivalPos="496.00" arrivalSpeed="14.40" duration="129.60" routeLength="1494.90" waitingTime="4.20" waitingCount="1" stopTime="0.00" timeLoss="26.32" rerouteNo="0" devices="tripinfo_up_87" vType="Car@up_87" speedFactor="1.04" vaporized=""/>