<?xml version="1.0" encoding="UTF-8"?>

<<<<<<< HEAD
<!-- generated on Fri Feb  4 08:21:55 2022 by Eclipse SUMO GUI Version 1.6.0
=======
<!-- generated on 2022-01-08 21:55:10 by Eclipse SUMO sumo Version 1.10.0
>>>>>>> 6b4bb94e6a362865e308050b32666b477ce947a0
<configuration xmlns:xsi="http://www.w3.org/2001/XMLSchema-instance" xsi:noNamespaceSchemaLocation="http://sumo.dlr.de/xsd/sumoConfiguration.xsd">

    <input>
        <net-file value="data/cross5x5.net.xml"/>
        <route-files value="data/cross5x5.rou.xml"/>
    </input>

    <output>
        <tripinfo-output value="data/out-tripinfo.xml"/>
    </output>

    <time>
        <begin value="0"/>
        <step-length value="0.2"/>
    </time>

    <processing>
        <collision.mingap-factor value="0"/>
    </processing>

    <report>
        <verbose value="true"/>
        <no-step-log value="true"/>
    </report>

    <traci_server>
<<<<<<< HEAD
        <remote-port value="52169"/>
=======
        <remote-port value="52985"/>
>>>>>>> 6b4bb94e6a362865e308050b32666b477ce947a0
    </traci_server>

    <gui_only>
        <tracker-interval value="0.2"/>
    </gui_only>

</configuration>
-->

<tripinfos xmlns:xsi="http://www.w3.org/2001/XMLSchema-instance" xsi:noNamespaceSchemaLocation="http://sumo.dlr.de/xsd/tripinfo_file.xsd">
<<<<<<< HEAD
=======
    <tripinfo id="left2_9" depart="0.00" departLane="28to27_0" departPos="5.10" departSpeed="16.66" departDelay="0.00" arrival="180.00" arrivalLane="outl2_0" arrivalPos="492.80" arrivalSpeed="16.66" duration="180.00" routeLength="2994.90" waitingTime="0.00" waitingCount="0" stopTime="0.00" timeLoss="0.15" rerouteNo="0" devices="tripinfo_left2_9" vType="Car@left2_9" speedFactor="0.86" vaporized=""/>
    <tripinfo id="left2_19" depart="1.60" departLane="28to27_0" departPos="5.10" departSpeed="16.67" departDelay="0.60" arrival="181.80" arrivalLane="outl2_0" arrivalPos="492.80" arrivalSpeed="16.64" duration="180.20" routeLength="2994.90" waitingTime="0.00" waitingCount="0" stopTime="0.00" timeLoss="0.53" rerouteNo="0" devices="tripinfo_left2_19" vType="Car@left2_19" speedFactor="1.16" vaporized=""/>
    <tripinfo id="left2_29" depart="3.20" departLane="28to27_0" departPos="5.10" departSpeed="16.67" departDelay="1.20" arrival="183.60" arrivalLane="outl2_0" arrivalPos="492.80" arrivalSpeed="16.63" duration="180.40" routeLength="2994.90" waitingTime="0.00" waitingCount="0" stopTime="0.00" timeLoss="0.59" rerouteNo="0" devices="tripinfo_left2_29" vType="Car@left2_29" speedFactor="0.93" vaporized=""/>
    <tripinfo id="left2_39" depart="4.80" departLane="28to27_0" departPos="5.10" departSpeed="16.67" departDelay="1.80" arrival="185.20" arrivalLane="outl2_0" arrivalPos="492.80" arrivalSpeed="16.63" duration="180.40" routeLength="2994.90" waitingTime="0.00" waitingCount="0" stopTime="0.00" timeLoss="0.60" rerouteNo="0" devices="tripinfo_left2_39" vType="Car@left2_39" speedFactor="0.90" vaporized=""/>
    <tripinfo id="left2_49" depart="6.40" departLane="28to27_0" departPos="5.10" departSpeed="16.53" departDelay="2.40" arrival="188.00" arrivalLane="outl2_0" arrivalPos="492.80" arrivalSpeed="16.52" duration="181.60" routeLength="2994.90" waitingTime="0.00" waitingCount="0" stopTime="0.00" timeLoss="0.34" rerouteNo="0" devices="tripinfo_left2_49" vType="Car@left2_49" speedFactor="0.85" vaporized=""/>
    <tripinfo id="left2_59" depart="8.00" departLane="28to27_0" departPos="5.10" departSpeed="16.67" departDelay="3.00" arrival="189.20" arrivalLane="outl2_0" arrivalPos="492.80" arrivalSpeed="16.55" duration="181.20" routeLength="2994.90" waitingTime="0.00" waitingCount="0" stopTime="0.00" timeLoss="1.36" rerouteNo="0" devices="tripinfo_left2_59" vType="Car@left2_59" speedFactor="0.97" vaporized=""/>
    <tripinfo id="left2_69" depart="9.60" departLane="28to27_0" departPos="5.10" departSpeed="16.67" departDelay="3.60" arrival="190.40" arrivalLane="outl2_0" arrivalPos="492.80" arrivalSpeed="16.57" duration="180.80" routeLength="2994.90" waitingTime="0.00" waitingCount="0" stopTime="0.00" timeLoss="0.97" rerouteNo="0" devices="tripinfo_left2_69" vType="Car@left2_69" speedFactor="1.02" vaporized=""/>
    <tripinfo id="right1_0" depart="0.00" departLane="1to2_0" departPos="5.10" departSpeed="16.67" departDelay="0.00" arrival="199.80" arrivalLane="outr1_0" arrivalPos="496.00" arrivalSpeed="16.67" duration="199.80" routeLength="2994.90" waitingTime="0.40" waitingCount="1" stopTime="6.20" timeLoss="13.91" rerouteNo="0" devices="tripinfo_right1_0" vType="Car@right1_0" speedFactor="1.06" vaporized=""/>
    <tripinfo id="left1_8" depart="0.00" departLane="14to13_0" departPos="5.10" departSpeed="16.67" departDelay="0.00" arrival="202.20" arrivalLane="outl1_0" arrivalPos="492.80" arrivalSpeed="16.62" duration="202.20" routeLength="2994.90" waitingTime="0.40" waitingCount="1" stopTime="8.60" timeLoss="13.86" rerouteNo="0" devices="tripinfo_left1_8" vType="Car@left1_8" speedFactor="0.94" vaporized=""/>
    <tripinfo id="right1_10" depart="1.60" departLane="1to2_0" departPos="5.10" departSpeed="16.67" departDelay="0.60" arrival="203.00" arrivalLane="outr1_0" arrivalPos="496.00" arrivalSpeed="16.66" duration="201.40" routeLength="2994.90" waitingTime="7.60" waitingCount="1" stopTime="0.00" timeLoss="21.64" rerouteNo="0" devices="tripinfo_right1_10" vType="Car@right1_10" speedFactor="1.09" vaporized=""/>
    <tripinfo id="left1_18" depart="1.60" departLane="14to13_0" departPos="5.10" departSpeed="16.67" departDelay="0.60" arrival="205.20" arrivalLane="outl1_0" arrivalPos="492.80" arrivalSpeed="16.62" duration="203.60" routeLength="2994.90" waitingTime="9.80" waitingCount="1" stopTime="0.00" timeLoss="23.95" rerouteNo="0" devices="tripinfo_left1_18" vType="Car@left1_18" speedFactor="0.94" vaporized=""/>
    <tripinfo id="left1_28" depart="3.20" departLane="14to13_0" departPos="5.10" departSpeed="16.67" departDelay="1.20" arrival="208.00" arrivalLane="outl1_0" arrivalPos="492.80" arrivalSpeed="16.62" duration="204.80" routeLength="2994.90" waitingTime="10.80" waitingCount="1" stopTime="0.00" timeLoss="25.09" rerouteNo="0" devices="tripinfo_left1_28" vType="Car@left1_28" speedFactor="1.13" vaporized=""/>
    <tripinfo id="right3_2" depart="0.00" departLane="29to30_0" departPos="5.10" departSpeed="16.67" departDelay="0.00" arrival="216.80" arrivalLane="outr3_0" arrivalPos="496.00" arrivalSpeed="16.67" duration="216.80" routeLength="2994.90" waitingTime="1.20" waitingCount="2" stopTime="8.80" timeLoss="28.30" rerouteNo="0" devices="tripinfo_right3_2" vType="Car@right3_2" speedFactor="1.01" vaporized=""/>
    <tripinfo id="right3_12" depart="1.60" departLane="29to30_0" departPos="5.10" departSpeed="16.67" departDelay="0.60" arrival="220.00" arrivalLane="outr3_0" arrivalPos="496.00" arrivalSpeed="16.66" duration="218.40" routeLength="2994.90" waitingTime="11.00" waitingCount="2" stopTime="0.00" timeLoss="38.74" rerouteNo="0" devices="tripinfo_right3_12" vType="Car@right3_12" speedFactor="1.05" vaporized=""/>
    <tripinfo id="right3_22" depart="3.20" departLane="29to30_0" departPos="5.10" departSpeed="16.67" departDelay="1.20" arrival="223.00" arrivalLane="outr3_0" arrivalPos="496.00" arrivalSpeed="16.66" duration="219.80" routeLength="2994.90" waitingTime="11.80" waitingCount="2" stopTime="0.00" timeLoss="39.96" rerouteNo="0" devices="tripinfo_right3_22" vType="Car@right3_22" speedFactor="0.98" vaporized=""/>
    <tripinfo id="right3_32" depart="4.80" departLane="29to30_0" departPos="5.10" departSpeed="16.67" departDelay="1.80" arrival="225.80" arrivalLane="outr3_0" arrivalPos="496.00" arrivalSpeed="16.66" duration="221.00" routeLength="2994.90" waitingTime="13.00" waitingCount="2" stopTime="0.00" timeLoss="41.22" rerouteNo="0" devices="tripinfo_right3_32" vType="Car@right3_32" speedFactor="1.01" vaporized=""/>
    <tripinfo id="right3_42" depart="6.40" departLane="29to30_0" departPos="5.10" departSpeed="16.67" departDelay="2.40" arrival="228.40" arrivalLane="outr3_0" arrivalPos="496.00" arrivalSpeed="16.66" duration="222.00" routeLength="2994.90" waitingTime="14.00" waitingCount="2" stopTime="0.00" timeLoss="42.30" rerouteNo="0" devices="tripinfo_right3_42" vType="Car@right3_42" speedFactor="1.09" vaporized=""/>
    <tripinfo id="up1_6" depart="0.00" departLane="39to31_0" departPos="5.10" departSpeed="16.67" departDelay="0.00" arrival="230.20" arrivalLane="outn1_0" arrivalPos="496.00" arrivalSpeed="16.63" duration="230.20" routeLength="2994.90" waitingTime="1.20" waitingCount="2" stopTime="22.40" timeLoss="27.95" rerouteNo="0" devices="tripinfo_up1_6" vType="Car@up1_6" speedFactor="1.05" vaporized=""/>
    <tripinfo id="down2_4" depart="0.00" departLane="40to4_0" departPos="5.10" departSpeed="16.67" departDelay="0.00" arrival="230.40" arrivalLane="outs2_0" arrivalPos="492.80" arrivalSpeed="16.67" duration="230.40" routeLength="2994.90" waitingTime="1.20" waitingCount="2" stopTime="22.80" timeLoss="27.88" rerouteNo="0" devices="tripinfo_down2_4" vType="Car@down2_4" speedFactor="1.03" vaporized=""/>
    <tripinfo id="up2_7" depart="0.00" departLane="43to33_0" departPos="5.10" departSpeed="16.67" departDelay="0.00" arrival="230.60" arrivalLane="outn2_0" arrivalPos="496.00" arrivalSpeed="16.67" duration="230.60" routeLength="2994.90" waitingTime="1.20" waitingCount="2" stopTime="22.80" timeLoss="28.05" rerouteNo="0" devices="tripinfo_up2_7" vType="Car@up2_7" speedFactor="0.89" vaporized=""/>
    <tripinfo id="down1_3" depart="0.00" departLane="36to2_0" departPos="5.10" departSpeed="16.67" departDelay="0.00" arrival="230.80" arrivalLane="outs1_0" arrivalPos="492.80" arrivalSpeed="16.67" duration="230.80" routeLength="2994.90" waitingTime="1.20" waitingCount="2" stopTime="23.00" timeLoss="28.05" rerouteNo="0" devices="tripinfo_down1_3" vType="Car@down1_3" speedFactor="1.08" vaporized=""/>
    <tripinfo id="right3_52" depart="8.00" departLane="29to30_0" departPos="5.10" departSpeed="16.67" departDelay="3.00" arrival="231.20" arrivalLane="outr3_0" arrivalPos="496.00" arrivalSpeed="16.66" duration="223.20" routeLength="2994.90" waitingTime="15.00" waitingCount="2" stopTime="0.00" timeLoss="43.41" rerouteNo="0" devices="tripinfo_right3_52" vType="Car@right3_52" speedFactor="1.02" vaporized=""/>
    <tripinfo id="right2_1" depart="0.00" departLane="15to16_0" departPos="5.10" departSpeed="16.67" departDelay="0.00" arrival="231.40" arrivalLane="outr2_0" arrivalPos="496.00" arrivalSpeed="16.63" duration="231.40" routeLength="2994.90" waitingTime="1.00" waitingCount="2" stopTime="23.80" timeLoss="27.75" rerouteNo="0" devices="tripinfo_right2_1" vType="Car@right2_1" speedFactor="0.94" vaporized=""/>
    <tripinfo id="up1_16" depart="1.60" departLane="39to31_0" departPos="5.10" departSpeed="16.67" departDelay="0.60" arrival="233.20" arrivalLane="outn1_0" arrivalPos="496.00" arrivalSpeed="16.62" duration="231.60" routeLength="2994.90" waitingTime="23.80" waitingCount="2" stopTime="0.00" timeLoss="51.78" rerouteNo="0" devices="tripinfo_up1_16" vType="Car@up1_16" speedFactor="0.88" vaporized=""/>
    <tripinfo id="down2_14" depart="1.60" departLane="40to4_0" departPos="5.10" departSpeed="16.67" departDelay="0.60" arrival="233.60" arrivalLane="outs2_0" arrivalPos="492.80" arrivalSpeed="16.66" duration="232.00" routeLength="2994.90" waitingTime="24.20" waitingCount="2" stopTime="0.00" timeLoss="52.20" rerouteNo="0" devices="tripinfo_down2_14" vType="Car@down2_14" speedFactor="0.99" vaporized=""/>
    <tripinfo id="up2_17" depart="1.60" departLane="43to33_0" departPos="5.10" departSpeed="16.67" departDelay="0.60" arrival="233.60" arrivalLane="outn2_0" arrivalPos="496.00" arrivalSpeed="16.66" duration="232.00" routeLength="2994.90" waitingTime="24.40" waitingCount="2" stopTime="0.00" timeLoss="52.32" rerouteNo="0" devices="tripinfo_up2_17" vType="Car@up2_17" speedFactor="0.94" vaporized=""/>
    <tripinfo id="down1_13" depart="1.60" departLane="36to2_0" departPos="5.10" departSpeed="16.67" departDelay="0.60" arrival="233.80" arrivalLane="outs1_0" arrivalPos="492.80" arrivalSpeed="16.66" duration="232.20" routeLength="2994.90" waitingTime="24.40" waitingCount="2" stopTime="0.00" timeLoss="52.48" rerouteNo="0" devices="tripinfo_down1_13" vType="Car@down1_13" speedFactor="1.12" vaporized=""/>
    <tripinfo id="right3_62" depart="9.60" departLane="29to30_0" departPos="5.10" departSpeed="16.67" departDelay="3.60" arrival="233.80" arrivalLane="outr3_0" arrivalPos="496.00" arrivalSpeed="16.66" duration="224.20" routeLength="2994.90" waitingTime="15.80" waitingCount="2" stopTime="0.00" timeLoss="44.39" rerouteNo="0" devices="tripinfo_right3_62" vType="Car@right3_62" speedFactor="1.02" vaporized=""/>
    <tripinfo id="right2_11" depart="1.60" departLane="15to16_0" departPos="5.10" departSpeed="16.67" departDelay="0.60" arrival="234.20" arrivalLane="outr2_0" arrivalPos="496.00" arrivalSpeed="16.62" duration="232.60" routeLength="2994.90" waitingTime="24.60" waitingCount="2" stopTime="0.00" timeLoss="52.95" rerouteNo="0" devices="tripinfo_right2_11" vType="Car@right2_11" speedFactor="1.03" vaporized=""/>
    <tripinfo id="right1_20" depart="3.20" departLane="1to2_0" departPos="5.10" departSpeed="16.67" departDelay="1.20" arrival="235.60" arrivalLane="outr1_0" arrivalPos="496.00" arrivalSpeed="16.67" duration="232.40" routeLength="2994.90" waitingTime="8.80" waitingCount="2" stopTime="24.20" timeLoss="28.45" rerouteNo="0" devices="tripinfo_right1_20" vType="Car@right1_20" speedFactor="1.02" vaporized=""/>
    <tripinfo id="up1_26" depart="3.20" departLane="39to31_0" departPos="5.10" departSpeed="16.67" departDelay="1.20" arrival="235.80" arrivalLane="outn1_0" arrivalPos="496.00" arrivalSpeed="16.62" duration="232.60" routeLength="2994.90" waitingTime="24.60" waitingCount="2" stopTime="0.00" timeLoss="52.89" rerouteNo="0" devices="tripinfo_up1_26" vType="Car@up1_26" speedFactor="0.92" vaporized=""/>
    <tripinfo id="down1_23" depart="3.20" departLane="36to2_0" departPos="5.10" departSpeed="16.67" departDelay="1.20" arrival="236.40" arrivalLane="outs1_0" arrivalPos="492.80" arrivalSpeed="16.66" duration="233.20" routeLength="2994.90" waitingTime="25.60" waitingCount="2" stopTime="0.00" timeLoss="53.55" rerouteNo="0" devices="tripinfo_down1_23" vType="Car@down1_23" speedFactor="0.89" vaporized=""/>
    <tripinfo id="up2_27" depart="3.20" departLane="43to33_0" departPos="5.10" departSpeed="16.67" departDelay="1.20" arrival="236.40" arrivalLane="outn2_0" arrivalPos="496.00" arrivalSpeed="16.66" duration="233.20" routeLength="2994.90" waitingTime="25.20" waitingCount="2" stopTime="0.00" timeLoss="53.38" rerouteNo="0" devices="tripinfo_up2_27" vType="Car@up2_27" speedFactor="0.95" vaporized=""/>
    <tripinfo id="right3_72" depart="11.20" departLane="29to30_0" departPos="5.10" departSpeed="16.67" departDelay="4.20" arrival="236.40" arrivalLane="outr3_0" arrivalPos="496.00" arrivalSpeed="16.66" duration="225.20" routeLength="2994.90" waitingTime="17.00" waitingCount="2" stopTime="0.00" timeLoss="45.36" rerouteNo="0" devices="tripinfo_right3_72" vType="Car@right3_72" speedFactor="0.94" vaporized=""/>
    <tripinfo id="right2_21" depart="3.20" departLane="15to16_0" departPos="5.10" departSpeed="16.67" departDelay="1.20" arrival="236.80" arrivalLane="outr2_0" arrivalPos="496.00" arrivalSpeed="16.62" duration="233.60" routeLength="2994.90" waitingTime="25.40" waitingCount="2" stopTime="0.00" timeLoss="53.91" rerouteNo="0" devices="tripinfo_right2_21" vType="Car@right2_21" speedFactor="1.01" vaporized=""/>
    <tripinfo id="right3_82" depart="12.80" departLane="29to30_0" departPos="5.10" departSpeed="16.67" departDelay="4.80" arrival="237.60" arrivalLane="outr3_0" arrivalPos="496.00" arrivalSpeed="16.59" duration="224.80" routeLength="2994.90" waitingTime="17.00" waitingCount="2" stopTime="2.40" timeLoss="42.67" rerouteNo="0" devices="tripinfo_right3_82" vType="Car@right3_82" speedFactor="1.02" vaporized=""/>
    <tripinfo id="down2_24" depart="3.00" departLane="40to4_0" departPos="5.10" departSpeed="16.05" departDelay="1.00" arrival="238.00" arrivalLane="outs2_0" arrivalPos="492.80" arrivalSpeed="16.05" duration="235.00" routeLength="2994.90" waitingTime="20.40" waitingCount="2" stopTime="0.00" timeLoss="48.42" rerouteNo="0" devices="tripinfo_down2_24" vType="Car@down2_24" speedFactor="0.83" vaporized=""/>
    <tripinfo id="right1_30" depart="4.80" departLane="1to2_0" departPos="5.10" departSpeed="16.67" departDelay="1.80" arrival="238.40" arrivalLane="outr1_0" arrivalPos="496.00" arrivalSpeed="16.66" duration="233.60" routeLength="2994.90" waitingTime="33.60" waitingCount="2" stopTime="0.00" timeLoss="53.91" rerouteNo="0" devices="tripinfo_right1_30" vType="Car@right1_30" speedFactor="1.18" vaporized=""/>
    <tripinfo id="up1_36" depart="4.80" departLane="39to31_0" departPos="5.10" departSpeed="16.67" departDelay="1.80" arrival="238.40" arrivalLane="outn1_0" arrivalPos="496.00" arrivalSpeed="16.62" duration="233.60" routeLength="2994.90" waitingTime="25.60" waitingCount="2" stopTime="0.00" timeLoss="53.93" rerouteNo="0" devices="tripinfo_up1_36" vType="Car@up1_36" speedFactor="0.97" vaporized=""/>
    <tripinfo id="up2_37" depart="4.80" departLane="43to33_0" departPos="5.10" departSpeed="16.67" departDelay="1.80" arrival="238.80" arrivalLane="outn2_0" arrivalPos="496.00" arrivalSpeed="16.66" duration="234.00" routeLength="2994.90" waitingTime="26.00" waitingCount="2" stopTime="0.00" timeLoss="54.27" rerouteNo="0" devices="tripinfo_up2_37" vType="Car@up2_37" speedFactor="1.18" vaporized=""/>
    <tripinfo id="down1_33" depart="4.80" departLane="36to2_0" departPos="5.10" departSpeed="16.67" departDelay="1.80" arrival="239.00" arrivalLane="outs1_0" arrivalPos="492.80" arrivalSpeed="16.66" duration="234.20" routeLength="2994.90" waitingTime="26.40" waitingCount="2" stopTime="0.00" timeLoss="54.54" rerouteNo="0" devices="tripinfo_down1_33" vType="Car@down1_33" speedFactor="1.17" vaporized=""/>
    <tripinfo id="down2_34" depart="4.80" departLane="40to4_0" departPos="5.10" departSpeed="16.67" departDelay="1.80" arrival="239.20" arrivalLane="outs2_0" arrivalPos="492.80" arrivalSpeed="16.41" duration="234.40" routeLength="2994.90" waitingTime="23.20" waitingCount="2" stopTime="0.00" timeLoss="54.64" rerouteNo="0" devices="tripinfo_down2_34" vType="Car@down2_34" speedFactor="0.99" vaporized=""/>
    <tripinfo id="right2_31" depart="4.80" departLane="15to16_0" departPos="5.10" departSpeed="16.67" departDelay="1.80" arrival="239.40" arrivalLane="outr2_0" arrivalPos="496.00" arrivalSpeed="16.62" duration="234.60" routeLength="2994.90" waitingTime="26.40" waitingCount="2" stopTime="0.00" timeLoss="54.84" rerouteNo="0" devices="tripinfo_right2_31" vType="Car@right2_31" speedFactor="1.15" vaporized=""/>
    <tripinfo id="right1_40" depart="6.40" departLane="1to2_0" departPos="5.10" departSpeed="16.67" departDelay="2.40" arrival="241.00" arrivalLane="outr1_0" arrivalPos="496.00" arrivalSpeed="16.66" duration="234.60" routeLength="2994.90" waitingTime="34.60" waitingCount="2" stopTime="0.00" timeLoss="54.82" rerouteNo="0" devices="tripinfo_right1_40" vType="Car@right1_40" speedFactor="1.03" vaporized=""/>
    <tripinfo id="up1_46" depart="6.40" departLane="39to31_0" departPos="5.10" departSpeed="16.67" departDelay="2.40" arrival="241.00" arrivalLane="outn1_0" arrivalPos="496.00" arrivalSpeed="16.62" duration="234.60" routeLength="2994.90" waitingTime="26.60" waitingCount="2" stopTime="0.00" timeLoss="54.92" rerouteNo="0" devices="tripinfo_up1_46" vType="Car@up1_46" speedFactor="1.00" vaporized=""/>
    <tripinfo id="down2_44" depart="6.40" departLane="40to4_0" departPos="5.10" departSpeed="16.67" departDelay="2.40" arrival="241.40" arrivalLane="outs2_0" arrivalPos="492.80" arrivalSpeed="16.64" duration="235.00" routeLength="2994.90" waitingTime="24.40" waitingCount="2" stopTime="0.00" timeLoss="55.16" rerouteNo="0" devices="tripinfo_down2_44" vType="Car@down2_44" speedFactor="1.04" vaporized=""/>
    <tripinfo id="up2_47" depart="6.40" departLane="43to33_0" departPos="5.10" departSpeed="16.67" departDelay="2.40" arrival="241.40" arrivalLane="outn2_0" arrivalPos="496.00" arrivalSpeed="16.66" duration="235.00" routeLength="2994.90" waitingTime="27.00" waitingCount="2" stopTime="0.00" timeLoss="55.19" rerouteNo="0" devices="tripinfo_up2_47" vType="Car@up2_47" speedFactor="0.90" vaporized=""/>
    <tripinfo id="down1_43" depart="6.40" departLane="36to2_0" departPos="5.10" departSpeed="16.67" departDelay="2.40" arrival="241.60" arrivalLane="outs1_0" arrivalPos="492.80" arrivalSpeed="16.66" duration="235.20" routeLength="2994.90" waitingTime="27.20" waitingCount="2" stopTime="0.00" timeLoss="55.51" rerouteNo="0" devices="tripinfo_down1_43" vType="Car@down1_43" speedFactor="1.04" vaporized=""/>
    <tripinfo id="right2_41" depart="6.40" departLane="15to16_0" departPos="5.10" departSpeed="16.67" departDelay="2.40" arrival="242.00" arrivalLane="outr2_0" arrivalPos="496.00" arrivalSpeed="16.63" duration="235.60" routeLength="2994.90" waitingTime="27.60" waitingCount="2" stopTime="0.00" timeLoss="55.86" rerouteNo="0" devices="tripinfo_right2_41" vType="Car@right2_41" speedFactor="0.96" vaporized=""/>
    <tripinfo id="left2_79" depart="11.20" departLane="28to27_0" departPos="5.10" departSpeed="16.67" departDelay="4.20" arrival="243.00" arrivalLane="outl2_0" arrivalPos="492.80" arrivalSpeed="16.67" duration="231.80" routeLength="2994.90" waitingTime="0.80" waitingCount="2" stopTime="24.00" timeLoss="28.00" rerouteNo="0" devices="tripinfo_left2_79" vType="Car@left2_79" speedFactor="1.09" vaporized=""/>
    <tripinfo id="right1_50" depart="8.00" departLane="1to2_0" departPos="5.10" departSpeed="16.62" departDelay="3.00" arrival="243.60" arrivalLane="outr1_0" arrivalPos="496.00" arrivalSpeed="16.61" duration="235.60" routeLength="2994.90" waitingTime="34.80" waitingCount="2" stopTime="0.00" timeLoss="55.30" rerouteNo="0" devices="tripinfo_right1_50" vType="Car@right1_50" speedFactor="0.85" vaporized=""/>
    <tripinfo id="up1_56" depart="8.00" departLane="39to31_0" departPos="5.10" departSpeed="16.67" departDelay="3.00" arrival="243.60" arrivalLane="outn1_0" arrivalPos="496.00" arrivalSpeed="16.63" duration="235.60" routeLength="2994.90" waitingTime="27.60" waitingCount="2" stopTime="0.00" timeLoss="55.88" rerouteNo="0" devices="tripinfo_up1_56" vType="Car@up1_56" speedFactor="0.90" vaporized=""/>
    <tripinfo id="down2_54" depart="8.00" departLane="40to4_0" departPos="5.10" departSpeed="16.67" departDelay="3.00" arrival="243.80" arrivalLane="outs2_0" arrivalPos="492.80" arrivalSpeed="16.66" duration="235.80" routeLength="2994.90" waitingTime="26.80" waitingCount="2" stopTime="0.00" timeLoss="55.97" rerouteNo="0" devices="tripinfo_down2_54" vType="Car@down2_54" speedFactor="1.00" vaporized=""/>
    <tripinfo id="up2_57" depart="8.00" departLane="43to33_0" departPos="5.10" departSpeed="16.67" departDelay="3.00" arrival="243.80" arrivalLane="outn2_0" arrivalPos="496.00" arrivalSpeed="16.66" duration="235.80" routeLength="2994.90" waitingTime="27.80" waitingCount="2" stopTime="0.00" timeLoss="56.06" rerouteNo="0" devices="tripinfo_up2_57" vType="Car@up2_57" speedFactor="1.14" vaporized=""/>
    <tripinfo id="down1_53" depart="8.00" departLane="36to2_0" departPos="5.10" departSpeed="16.67" departDelay="3.00" arrival="244.20" arrivalLane="outs1_0" arrivalPos="492.80" arrivalSpeed="16.66" duration="236.20" routeLength="2994.90" waitingTime="28.20" waitingCount="2" stopTime="0.00" timeLoss="56.49" rerouteNo="0" devices="tripinfo_down1_53" vType="Car@down1_53" speedFactor="1.10" vaporized=""/>
    <tripinfo id="right2_51" depart="8.00" departLane="15to16_0" departPos="5.10" departSpeed="16.67" departDelay="3.00" arrival="244.60" arrivalLane="outr2_0" arrivalPos="496.00" arrivalSpeed="16.63" duration="236.60" routeLength="2994.90" waitingTime="28.60" waitingCount="2" stopTime="0.00" timeLoss="56.78" rerouteNo="0" devices="tripinfo_right2_51" vType="Car@right2_51" speedFactor="1.17" vaporized=""/>
    <tripinfo id="right1_60" depart="9.60" departLane="1to2_0" departPos="5.10" departSpeed="16.67" departDelay="3.60" arrival="245.60" arrivalLane="outr1_0" arrivalPos="496.00" arrivalSpeed="16.65" duration="236.00" routeLength="2994.90" waitingTime="35.80" waitingCount="2" stopTime="0.00" timeLoss="56.34" rerouteNo="0" devices="tripinfo_right1_60" vType="Car@right1_60" speedFactor="1.08" vaporized=""/>
    <tripinfo id="down2_64" depart="9.60" departLane="40to4_0" departPos="5.10" departSpeed="16.67" departDelay="3.60" arrival="246.20" arrivalLane="outs2_0" arrivalPos="492.80" arrivalSpeed="16.66" duration="236.60" routeLength="2994.90" waitingTime="28.60" waitingCount="2" stopTime="0.00" timeLoss="56.81" rerouteNo="0" devices="tripinfo_down2_64" vType="Car@down2_64" speedFactor="0.94" vaporized=""/>
    <tripinfo id="up2_67" depart="9.60" departLane="43to33_0" departPos="5.10" departSpeed="16.67" departDelay="3.60" arrival="246.20" arrivalLane="outn2_0" arrivalPos="496.00" arrivalSpeed="16.66" duration="236.60" routeLength="2994.90" waitingTime="28.60" waitingCount="2" stopTime="0.00" timeLoss="56.94" rerouteNo="0" devices="tripinfo_up2_67" vType="Car@up2_67" speedFactor="0.91" vaporized=""/>
    <tripinfo id="left2_89" depart="12.80" departLane="28to27_0" departPos="5.10" departSpeed="16.67" departDelay="4.80" arrival="246.40" arrivalLane="outl2_0" arrivalPos="492.80" arrivalSpeed="16.67" duration="233.60" routeLength="2994.90" waitingTime="25.80" waitingCount="1" stopTime="0.00" timeLoss="53.87" rerouteNo="0" devices="tripinfo_left2_89" vType="Car@left2_89" speedFactor="1.02" vaporized=""/>
    <tripinfo id="down1_63" depart="9.60" departLane="36to2_0" departPos="5.10" departSpeed="16.67" departDelay="3.60" arrival="246.80" arrivalLane="outs1_0" arrivalPos="492.80" arrivalSpeed="16.66" duration="237.20" routeLength="2994.90" waitingTime="29.40" waitingCount="2" stopTime="0.00" timeLoss="57.45" rerouteNo="0" devices="tripinfo_down1_63" vType="Car@down1_63" speedFactor="0.99" vaporized=""/>
    <tripinfo id="right2_61" depart="9.60" departLane="15to16_0" departPos="5.10" departSpeed="16.67" departDelay="3.60" arrival="247.00" arrivalLane="outr2_0" arrivalPos="496.00" arrivalSpeed="16.63" duration="237.40" routeLength="2994.90" waitingTime="29.40" waitingCount="2" stopTime="0.00" timeLoss="57.69" rerouteNo="0" devices="tripinfo_right2_61" vType="Car@right2_61" speedFactor="1.12" vaporized=""/>
    <tripinfo id="down2_74" depart="11.20" departLane="40to4_0" departPos="5.10" departSpeed="16.67" departDelay="4.20" arrival="248.60" arrivalLane="outs2_0" arrivalPos="492.80" arrivalSpeed="16.66" duration="237.40" routeLength="2994.90" waitingTime="29.40" waitingCount="2" stopTime="0.00" timeLoss="57.71" rerouteNo="0" devices="tripinfo_down2_74" vType="Car@down2_74" speedFactor="0.96" vaporized=""/>
    <tripinfo id="up2_77" depart="11.20" departLane="43to33_0" departPos="5.10" departSpeed="16.67" departDelay="4.20" arrival="248.80" arrivalLane="outn2_0" arrivalPos="496.00" arrivalSpeed="16.66" duration="237.60" routeLength="2994.90" waitingTime="29.60" waitingCount="2" stopTime="0.00" timeLoss="57.90" rerouteNo="0" devices="tripinfo_up2_77" vType="Car@up2_77" speedFactor="0.98" vaporized=""/>
    <tripinfo id="down1_73" depart="11.20" departLane="36to2_0" departPos="5.10" departSpeed="16.67" departDelay="4.20" arrival="249.40" arrivalLane="outs1_0" arrivalPos="492.80" arrivalSpeed="16.66" duration="238.20" routeLength="2994.90" waitingTime="30.40" waitingCount="2" stopTime="0.00" timeLoss="58.39" rerouteNo="0" devices="tripinfo_down1_73" vType="Car@down1_73" speedFactor="1.06" vaporized=""/>
    <tripinfo id="left2_99" depart="14.40" departLane="28to27_0" departPos="5.10" departSpeed="16.67" departDelay="5.40" arrival="249.40" arrivalLane="outl2_0" arrivalPos="492.80" arrivalSpeed="16.66" duration="235.00" routeLength="2994.90" waitingTime="26.80" waitingCount="1" stopTime="0.00" timeLoss="55.20" rerouteNo="0" devices="tripinfo_left2_99" vType="Car@left2_99" speedFactor="1.10" vaporized=""/>
    <tripinfo id="down3_5" depart="0.00" departLane="44to6_0" departPos="5.10" departSpeed="16.16" departDelay="0.00" arrival="250.00" arrivalLane="outs3_0" arrivalPos="492.80" arrivalSpeed="16.12" duration="250.00" routeLength="2994.90" waitingTime="1.60" waitingCount="3" stopTime="23.80" timeLoss="40.72" rerouteNo="0" devices="tripinfo_down3_5" vType="Car@down3_5" speedFactor="0.83" vaporized=""/>
    <tripinfo id="right2_71" depart="11.20" departLane="15to16_0" departPos="5.10" departSpeed="16.67" departDelay="4.20" arrival="250.20" arrivalLane="outr2_0" arrivalPos="496.00" arrivalSpeed="16.66" duration="239.00" routeLength="2994.90" waitingTime="1.00" waitingCount="2" stopTime="30.40" timeLoss="28.85" rerouteNo="0" devices="tripinfo_right2_71" vType="Car@right2_71" speedFactor="0.97" vaporized=""/>
    <tripinfo id="down3_15" depart="1.80" departLane="44to6_0" departPos="5.10" departSpeed="16.67" departDelay="0.80" arrival="252.60" arrivalLane="outs3_0" arrivalPos="492.80" arrivalSpeed="16.60" duration="250.80" routeLength="2994.90" waitingTime="27.40" waitingCount="3" stopTime="0.00" timeLoss="70.99" rerouteNo="0" devices="tripinfo_down3_15" vType="Car@down3_15" speedFactor="0.93" vaporized=""/>
    <tripinfo id="left2_109" depart="16.00" departLane="28to27_0" departPos="5.10" departSpeed="16.67" departDelay="6.00" arrival="252.60" arrivalLane="outl2_0" arrivalPos="492.80" arrivalSpeed="16.66" duration="236.60" routeLength="2994.90" waitingTime="28.60" waitingCount="2" stopTime="0.00" timeLoss="56.92" rerouteNo="0" devices="tripinfo_left2_109" vType="Car@left2_109" speedFactor="0.96" vaporized=""/>